          ******************************************************
          *         GAMESS VERSION =  1 MAY 2013 (R1)          *
          *             FROM IOWA STATE UNIVERSITY             *
          * M.W.SCHMIDT, K.K.BALDRIDGE, J.A.BOATZ, S.T.ELBERT, *
          *   M.S.GORDON, J.H.JENSEN, S.KOSEKI, N.MATSUNAGA,   *
          *          K.A.NGUYEN, S.J.SU, T.L.WINDUS,           *
          *       TOGETHER WITH M.DUPUIS, J.A.MONTGOMERY       *
          *         J.COMPUT.CHEM.  14, 1347-1363(1993)        *
          *************** 64 BIT WINDOWS VERSION ***************

  SINCE 1993, STUDENTS AND POSTDOCS WORKING AT IOWA STATE UNIVERSITY
  AND ALSO IN THEIR VARIOUS JOBS AFTER LEAVING ISU HAVE MADE IMPORTANT
  CONTRIBUTIONS TO THE CODE:
     IVANA ADAMOVIC, CHRISTINE AIKENS, YURI ALEXEEV, POOJA ARORA,
     ANDREY ASADCHEV, ROB BELL, PRADIPTA BANDYOPADHYAY, JONATHAN BENTZ,
     BRETT BODE, GALINA CHABAN, WEI CHEN, CHEOL HO CHOI, PAUL DAY,
     ALBERT DEFUSCO, TIM DUDLEY, DMITRI FEDOROV, GRAHAM FLETCHER,
     MARK FREITAG, KURT GLAESEMANN, DAN KEMP, GRANT MERRILL,
     NORIYUKI MINEZAWA, JONATHAN MULLIN, TAKESHI NAGATA,
     SEAN NEDD, HEATHER NETZLOFF, BOSILJKA NJEGIC, RYAN OLSON, MIKE PAK,
     JIM SHOEMAKER, LYUDMILA SLIPCHENKO, SAROM SOK, JIE SONG,
     TETSUYA TAKETSUGU, SIMON WEBB, SOOHAENG YOO, FEDERICO ZAHARIEV

  ADDITIONAL CODE HAS BEEN PROVIDED BY COLLABORATORS IN OTHER GROUPS:
     IOWA STATE UNIVERSITY:
          JOE IVANIC, LAIMUTIS BYTAUTAS, KLAUS RUEDENBERG
     UNIVERSITY OF TOKYO: KIMIHIKO HIRAO, TAKAHITO NAKAJIMA,
          TAKAO TSUNEDA, MUNEAKI KAMIYA, SUSUMU YANAGISAWA,
          KIYOSHI YAGI, MAHITO CHIBA, SEIKEN TOKURA, NAOAKI KAWAKAMI
     UNIVERSITY OF AARHUS: FRANK JENSEN
     UNIVERSITY OF IOWA: VISVALDAS KAIRYS, HUI LI
     NATIONAL INST. OF STANDARDS AND TECHNOLOGY: WALT STEVENS, DAVID GARMER
     UNIVERSITY OF PISA: BENEDETTA MENNUCCI, JACOPO TOMASI
     UNIVERSITY OF MEMPHIS: HENRY KURTZ, PRAKASHAN KORAMBATH
     UNIVERSITY OF ALBERTA: TOBY ZENG, MARIUSZ KLOBUKOWSKI
     UNIVERSITY OF NEW ENGLAND: MARK SPACKMAN
     MIE UNIVERSITY: HIROAKI UMEDA
     MICHIGAN STATE UNIVERSITY:
          KAROL KOWALSKI, MARTA WLOCH, JEFFREY GOUR, JESSE LUTZ,
          WEI LI, PIOTR PIECUCH
     UNIVERSITY OF SILESIA: MONIKA MUSIAL, STANISLAW KUCHARSKI
     FACULTES UNIVERSITAIRES NOTRE-DAME DE LA PAIX:
          OLIVIER QUINET, BENOIT CHAMPAGNE
     UNIVERSITY OF CALIFORNIA - SANTA BARBARA: BERNARD KIRTMAN
     INSTITUTE FOR MOLECULAR SCIENCE:
          KAZUYA ISHIMURA, MICHIO KATOUDA, AND SHIGERU NAGASE
     UNIVERSITY OF NOTRE DAME: DAN CHIPMAN
     KYUSHU UNIVERSITY:
          HARUYUKI NAKANO,
          FENG LONG GU, JACEK KORCHOWIEC, MARCIN MAKOWSKI, AND YURIKO AOKI,
          HIROTOSHI MORI AND EISAKU MIYOSHI
     PENNSYLVANIA STATE UNIVERSITY:
          TZVETELIN IORDANOV, CHET SWALINA, JONATHAN SKONE,
          SHARON HAMMES-SCHIFFER
     WASEDA UNIVERSITY:
          MASATO KOBAYASHI, TOMOKO AKAMA, TSUGUKI TOUMA,
          TAKESHI YOSHIKAWA, YASUHIRO IKABATA, HIROMI NAKAI
     NANJING UNIVERSITY: SHUHUA LI
     UNIVERSITY OF NEBRASKA:
          PEIFENG SU, DEJUN SI, NANDUN THELLAMUREGE, YALI WANG, HUI LI
     UNIVERSITY OF ZURICH:
          ROBERTO PEVERATI, KIM BALDRIDGE
     N. COPERNICUS UNIVERSITY AND JACKSON STATE UNIVERSITY:
          MARIA BARYSZ


 PARALLEL VERSION RUNNING ON     4 PROCESSORS IN     4 NODES.

 EXECUTION OF GAMESS BEGUN Thu Dec 14 16:06:11 2017

            ECHO OF THE FIRST FEW INPUT CARDS -
 INPUT CARD> $CONTRL SCFTYP=RHF RUNTYP=optimize MULT=1 $END                                 
 INPUT CARD> $BASIS  GBASIS=N31 NGAUSS=6 ndfunc=1 npfunc=1 $END                             
 INPUT CARD> $statpt hssend=.t. $end                                                        
 INPUT CARD>                                                                                
 INPUT CARD> $DATA                                                     ! Paste geometry near
 INPUT CARD> n-AcOH                                                                         
 INPUT CARD> C1                                                                             
 INPUT CARD>O	8        0.174000000     -1.176000000      0.000000000                        
 INPUT CARD>C	6        1.546000000      0.866000000      0.000000000                        
 INPUT CARD>C	6        0.303000000      0.052000000      0.000000000                        
 INPUT CARD>O	8       -0.846000000      0.786000000      0.000000000                        
 INPUT CARD>H	1       -1.615000000      0.193000000      0.000000000                        
 INPUT CARD>H	1        1.308000000      1.957000000      0.000000000                        
 INPUT CARD>H	1        2.145000000      0.615000000      0.910000000                        
 INPUT CARD>H	1        2.145000000      0.615000000     -0.910000000                        
 INPUT CARD> $END                                                                           
    1000000 WORDS OF MEMORY AVAILABLE

     BASIS OPTIONS
     -------------
     GBASIS=N31          IGAUSS=       6      POLAR=POPN31  
     NDFUNC=       1     NFFUNC=       0     DIFFSP=       F
     NPFUNC=       1      DIFFS=       F     BASNAM=        


     RUN TITLE
     ---------
  n-AcOH                                                                         

 THE POINT GROUP OF THE MOLECULE IS C1      
 THE ORDER OF THE PRINCIPAL AXIS IS     0

 ATOM      ATOMIC                      COORDINATES (BOHR)
           CHARGE         X                   Y                   Z
 O           8.0     0.3288123219       -2.2223177616        0.0000000000
 C           6.0     2.9215163770        1.6365027054        0.0000000000
 C           6.0     0.5725869743        0.0982657514        0.0000000000
 O           8.0    -1.5987081856        1.4853246263        0.0000000000
 H           1.0    -3.0519074702        0.3647171156        0.0000000000
 H           1.0     2.4717615919        3.6981937580        0.0000000000
 H           1.0     4.0534622437        1.1621814824        1.7196506488
 H           1.0     4.0534622437        1.1621814824       -1.7196506488

          INTERNUCLEAR DISTANCES (ANGS.)
          ------------------------------

                1 O          2 C          3 C          4 O          5 H     

   1 O       0.0000000    2.4601114 *  1.2347571 *  2.2112992 *  2.2527055 *
   2 C       2.4601114 *  0.0000000    1.4858146 *  2.3933374 *  3.2318493  
   3 C       1.2347571 *  1.4858146 *  0.0000000    1.3634357 *  1.9231758 *
   4 O       2.2112992 *  2.3933374 *  1.3634357 *  0.0000000    0.9710870 *
   5 H       2.2527055 *  3.2318493    1.9231758 *  0.9710870 *  0.0000000  
   6 H       3.3319131    1.1166580 *  2.1538454 *  2.4517253 *  3.4140335  
   7 H       2.8143600 *  1.1179902 *  2.1302659 *  3.1310417    3.8915015  
   8 H       2.8143600 *  1.1179902 *  2.1302659 *  3.1310417    3.8915015  

                6 H          7 H          8 H     

   1 O       3.3319131    2.8143600 *  2.8143600 *
   2 C       1.1166580 *  1.1179902 *  1.1179902 *
   3 C       2.1538454 *  2.1302659 *  2.1302659 *
   4 O       2.4517253 *  3.1310417    3.1310417  
   5 H       3.4140335    3.8915015    3.8915015  
   6 H       0.0000000    1.8247282 *  1.8247282 *
   7 H       1.8247282 *  0.0000000    1.8200000 *
   8 H       1.8247282 *  1.8200000 *  0.0000000  

  * ... LESS THAN  3.000


     ATOMIC BASIS SET
     ----------------
 THE CONTRACTED PRIMITIVE FUNCTIONS HAVE BEEN UNNORMALIZED
 THE CONTRACTED BASIS FUNCTIONS ARE NOW NORMALIZED TO UNITY

  SHELL TYPE  PRIMITIVE        EXPONENT          CONTRACTION COEFFICIENT(S)

 O         

      1   S       1          5484.6716600    0.001831074430
      1   S       2           825.2349460    0.013950172200
      1   S       3           188.0469580    0.068445078098
      1   S       4            52.9645000    0.232714335992
      1   S       5            16.8975704    0.470192897984
      1   S       6             5.7996353    0.358520852987

      2   L       7            15.5396162   -0.110777549525    0.070874268231
      2   L       8             3.5999336   -0.148026262701    0.339752839147
      2   L       9             1.0137618    1.130767015354    0.727158577316

      3   L      10             0.2700058    1.000000000000    1.000000000000

      4   D      11             0.8000000    1.000000000000

 C         

      5   S      12          3047.5248800    0.001834737132
      5   S      13           457.3695180    0.014037322813
      5   S      14           103.9486850    0.068842622264
      5   S      15            29.2101553    0.232184443216
      5   S      16             9.2866630    0.467941348435
      5   S      17             3.1639270    0.362311985337

      6   L      18             7.8682723   -0.119332419775    0.068999066591
      6   L      19             1.8812885   -0.160854151696    0.316423960957
      6   L      20             0.5442493    1.143456437840    0.744308290898

      7   L      21             0.1687145    1.000000000000    1.000000000000

      8   D      22             0.8000000    1.000000000000

 C         

      9   S      23          3047.5248800    0.001834737132
      9   S      24           457.3695180    0.014037322813
      9   S      25           103.9486850    0.068842622264
      9   S      26            29.2101553    0.232184443216
      9   S      27             9.2866630    0.467941348435
      9   S      28             3.1639270    0.362311985337

     10   L      29             7.8682723   -0.119332419775    0.068999066591
     10   L      30             1.8812885   -0.160854151696    0.316423960957
     10   L      31             0.5442493    1.143456437840    0.744308290898

     11   L      32             0.1687145    1.000000000000    1.000000000000

     12   D      33             0.8000000    1.000000000000

 O         

     13   S      34          5484.6716600    0.001831074430
     13   S      35           825.2349460    0.013950172200
     13   S      36           188.0469580    0.068445078098
     13   S      37            52.9645000    0.232714335992
     13   S      38            16.8975704    0.470192897984
     13   S      39             5.7996353    0.358520852987

     14   L      40            15.5396162   -0.110777549525    0.070874268231
     14   L      41             3.5999336   -0.148026262701    0.339752839147
     14   L      42             1.0137618    1.130767015354    0.727158577316

     15   L      43             0.2700058    1.000000000000    1.000000000000

     16   D      44             0.8000000    1.000000000000

 H         

     17   S      45            18.7311370    0.033494604338
     17   S      46             2.8253944    0.234726953484
     17   S      47             0.6401217    0.813757326146

     18   S      48             0.1612778    1.000000000000

     19   P      49             1.1000000    1.000000000000

 H         

     20   S      50            18.7311370    0.033494604338
     20   S      51             2.8253944    0.234726953484
     20   S      52             0.6401217    0.813757326146

     21   S      53             0.1612778    1.000000000000

     22   P      54             1.1000000    1.000000000000

 H         

     23   S      55            18.7311370    0.033494604338
     23   S      56             2.8253944    0.234726953484
     23   S      57             0.6401217    0.813757326146

     24   S      58             0.1612778    1.000000000000

     25   P      59             1.1000000    1.000000000000

 H         

     26   S      60            18.7311370    0.033494604338
     26   S      61             2.8253944    0.234726953484
     26   S      62             0.6401217    0.813757326146

     27   S      63             0.1612778    1.000000000000

     28   P      64             1.1000000    1.000000000000

 TOTAL NUMBER OF BASIS SET SHELLS             =   28
 NUMBER OF CARTESIAN GAUSSIAN BASIS FUNCTIONS =   80
 NUMBER OF ELECTRONS                          =   32
 CHARGE OF MOLECULE                           =    0
 SPIN MULTIPLICITY                            =    1
 NUMBER OF OCCUPIED ORBITALS (ALPHA)          =   16
 NUMBER OF OCCUPIED ORBITALS (BETA )          =   16
 TOTAL NUMBER OF ATOMS                        =    8
 THE NUCLEAR REPULSION ENERGY IS      120.1341455272

     $NEO OPTIONS
     ------------
     NUNIQN=       0     BASNUC=DZSNB        NEOSCF=NONE    
     NEOCI =NONE         NUMULT=       2     NUCST =       1
     NAUXNB=       0     VNUCEX=       F     NUCOPT=       F
     NTAUXB=       0     NEOHSS=       F     HSSINI=READH   
     HSSUPD=POWELLUP     DIRNUC=       F     SYMNUC=       F
     QMTOLN= 0.0E+00     USRDEX=       F
     POSNEO=       F     POSPRP=       F
     NEONCI=       F     LOCORB=       0

     $CONTRL OPTIONS
     ---------------
 SCFTYP=RHF          RUNTYP=OPTIMIZE     EXETYP=RUN     
 MPLEVL=       0     CITYP =NONE         CCTYP =NONE         VBTYP =NONE    
 DFTTYP=NONE         TDDFT =NONE    
 MULT  =       1     ICHARG=       0     NZVAR =       0     COORD =UNIQUE  
 PP    =NONE         RELWFN=NONE         LOCAL =NONE         NUMGRD=       F
 ISPHER=      -1     NOSYM =       0     MAXIT =      30     UNITS =ANGS    
 PLTORB=       F     MOLPLT=       F     AIMPAC=       F     FRIEND=        
 NPRINT=       7     IREST =       0     GEOM  =INPUT   
 NORMF =       0     NORMP =       0     ITOL  =      20     ICUT  =       9
 INTTYP=BEST         GRDTYP=BEST         QMTTOL= 1.0E-06

     $SYSTEM OPTIONS
     ---------------
  REPLICATED MEMORY=     1000000 WORDS (ON EVERY NODE).
 DISTRIBUTED MEMDDI=           0 MILLION WORDS IN AGGREGATE,
 MEMDDI DISTRIBUTED OVER   4 PROCESSORS IS           0 WORDS/PROCESSOR.
 TOTAL MEMORY REQUESTED ON EACH PROCESSOR=     1000000 WORDS.
 TIMLIM=      525600.00 MINUTES, OR     365.0 DAYS.
 PARALL= T  BALTYP=  DLB     KDIAG=    0  COREFL= F
 MXSEQ2=     300 MXSEQ3=     150

          ----------------
          PROPERTIES INPUT
          ----------------

     MOMENTS            FIELD           POTENTIAL          DENSITY
 IEMOM =       1   IEFLD =       0   IEPOT =       0   IEDEN =       0
 WHERE =COMASS     WHERE =NUCLEI     WHERE =NUCLEI     WHERE =NUCLEI  
 OUTPUT=BOTH       OUTPUT=BOTH       OUTPUT=BOTH       OUTPUT=BOTH    
 IEMINT=       0   IEFINT=       0                     IEDINT=       0
                                                       MORB  =       0
          EXTRAPOLATION IN EFFECT
          SOSCF IN EFFECT
 ORBITAL PRINTING OPTION: NPREO=     1    80     2     1

     -------------------------------
     INTEGRAL TRANSFORMATION OPTIONS
     -------------------------------
     NWORD  =            0
     CUTOFF = 1.0E-09     MPTRAN =       0
     DIRTRF =       F     AOINTS =DUP     

          ----------------------
          INTEGRAL INPUT OPTIONS
          ----------------------
 NOPK  =       1 NORDER=       0 SCHWRZ=       T

     ------------------------------------------
     THE POINT GROUP IS C1 , NAXIS= 0, ORDER= 1
     ------------------------------------------

     DIMENSIONS OF THE SYMMETRY SUBSPACES ARE
 A   =   80

 ..... DONE SETTING UP THE RUN .....
 CPU     0: STEP CPU TIME=     0.01 TOTAL CPU TIME=        0.0 (    0.0 MIN)
 TOTAL WALL CLOCK TIME=        0.0 SECONDS, CPU UTILIZATION IS 100.01%


          -----------------------------
          STATIONARY POINT LOCATION RUN
          -----------------------------

 OBTAINING INITIAL HESSIAN, HESS=GUESS   
 CARTESIAN COORDINATE OPTIMIZATION USING BADGER'S RULE FORCE CONSTANT GUESS

          PARAMETERS CONTROLLING GEOMETRY SEARCH ARE
          METHOD =QA                  UPHESS =BFGS    
          NNEG   =         0          NFRZ   =         0
          NSTEP  =        50          IFOLOW =         1
          HESS   =GUESS               RESTAR =         F
          IHREP  =         0          HSSEND =         T
          NPRT   =         0          NPUN   =         0
          OPTTOL = 1.000E-04          RMIN   = 1.500E-03
          RMAX   = 1.000E-01          RLIM   = 7.000E-02
          DXMAX  = 3.000E-01          PURIFY =         F
          MOVIE  =         F          TRUPD  =         T
          TRMAX  = 5.000E-01          TRMIN  = 5.000E-02
          ITBMAT =         5          STPT   =         F
          STSTEP = 1.000E-02          PROJCT=          T

 BEGINNING GEOMETRY SEARCH POINT NSERCH=   0 ...

 COORDINATES OF ALL ATOMS ARE (ANGS)
   ATOM   CHARGE       X              Y              Z
 ------------------------------------------------------------
 O           8.0   0.1740000000  -1.1760000000   0.0000000000
 C           6.0   1.5460000000   0.8660000000   0.0000000000
 C           6.0   0.3030000000   0.0520000000   0.0000000000
 O           8.0  -0.8460000000   0.7860000000   0.0000000000
 H           1.0  -1.6150000000   0.1930000000   0.0000000000
 H           1.0   1.3080000000   1.9570000000   0.0000000000
 H           1.0   2.1450000000   0.6150000000   0.9100000000
 H           1.0   2.1450000000   0.6150000000  -0.9100000000

          ********************
          1 ELECTRON INTEGRALS
          ********************
 ...... END OF ONE-ELECTRON INTEGRALS ......
 CPU     0: STEP CPU TIME=     0.00 TOTAL CPU TIME=        0.0 (    0.0 MIN)
 TOTAL WALL CLOCK TIME=        0.0 SECONDS, CPU UTILIZATION IS 100.01%

          -------------
          GUESS OPTIONS
          -------------
          GUESS =HUCKEL            NORB  =       0          NORDER=       0
          MIX   =       F          PRTMO =       F          PUNMO =       F
          TOLZ  = 1.0E-08          TOLE  = 1.0E-05
          SYMDEN=       F          PURIFY=       F

 INITIAL GUESS ORBITALS GENERATED BY HUCKEL   ROUTINE.
 HUCKEL GUESS REQUIRES     54784 WORDS.

 SYMMETRIES FOR INITIAL GUESS ORBITALS FOLLOW.   BOTH SET(S).
    16 ORBITALS ARE OCCUPIED (    4 CORE ORBITALS).
     5=A        6=A        7=A        8=A        9=A       10=A       11=A   
    12=A       13=A       14=A       15=A       16=A       17=A       18=A   
    19=A       20=A       21=A       22=A       23=A       24=A       25=A   
    26=A   
 ...... END OF INITIAL ORBITAL SELECTION ......
 CPU     0: STEP CPU TIME=     0.01 TOTAL CPU TIME=        0.0 (    0.0 MIN)
 TOTAL WALL CLOCK TIME=        0.0 SECONDS, CPU UTILIZATION IS 100.00%

                    ----------------------
                    AO INTEGRAL TECHNOLOGY
                    ----------------------
     S,P,L SHELL ROTATED AXIS INTEGRALS, REPROGRAMMED BY
        KAZUYA ISHIMURA (IMS) AND JOSE SIERRA (SYNSTAR).
     S,P,D,L SHELL ROTATED AXIS INTEGRALS PROGRAMMED BY
        KAZUYA ISHIMURA (INSTITUTE FOR MOLECULAR SCIENCE).
     S,P,D,F,G SHELL TO TOTAL QUARTET ANGULAR MOMENTUM SUM 5,
        ERIC PROGRAM BY GRAHAM FLETCHER (ELORET AND NASA ADVANCED
        SUPERCOMPUTING DIVISION, AMES RESEARCH CENTER).
     S,P,D,F,G,L SHELL GENERAL RYS QUADRATURE PROGRAMMED BY
        MICHEL DUPUIS (PACIFIC NORTHWEST NATIONAL LABORATORY).

          --------------------
          2 ELECTRON INTEGRALS
          --------------------

 THE -PK- OPTION IS OFF, THE INTEGRALS ARE NOT IN SUPERMATRIX FORM.
 STORING   15000 INTEGRALS/RECORD ON DISK, USING 12 BYTES/INTEGRAL.
 TWO ELECTRON INTEGRAL EVALUATION REQUIRES   90802 WORDS OF MEMORY.
 SCHWARZ INEQUALITY OVERHEAD:      3237 INTEGRALS, T=        0.00
 II,JST,KST,LST =  1  1  1  1 NREC =         1 INTLOC =    1
 II,JST,KST,LST =  2  1  1  1 NREC =         1 INTLOC =    1
 II,JST,KST,LST =  3  1  1  1 NREC =         1 INTLOC =    1
 II,JST,KST,LST =  4  1  1  1 NREC =         1 INTLOC =    2
 II,JST,KST,LST =  5  1  1  1 NREC =         1 INTLOC =    5
 II,JST,KST,LST =  6  1  1  1 NREC =         1 INTLOC =    5
 II,JST,KST,LST =  7  1  1  1 NREC =         1 INTLOC =    5
 II,JST,KST,LST =  8  1  1  1 NREC =         1 INTLOC =    5
 II,JST,KST,LST =  9  1  1  1 NREC =         1 INTLOC =    5
 II,JST,KST,LST = 10  1  1  1 NREC =         1 INTLOC =    5
 II,JST,KST,LST = 11  1  1  1 NREC =         1 INTLOC =    5
 II,JST,KST,LST = 12  1  1  1 NREC =         1 INTLOC =    5
 II,JST,KST,LST = 13  1  1  1 NREC =         1 INTLOC =    5
 II,JST,KST,LST = 14  1  1  1 NREC =         1 INTLOC =    5
 II,JST,KST,LST = 15  1  1  1 NREC =         1 INTLOC =    5
 II,JST,KST,LST = 16  1  1  1 NREC =         1 INTLOC =    5
 II,JST,KST,LST = 17  1  1  1 NREC =         3 INTLOC =14923
 II,JST,KST,LST = 18  1  1  1 NREC =         3 INTLOC =14923
 II,JST,KST,LST = 19  1  1  1 NREC =         3 INTLOC =14923
 II,JST,KST,LST = 20  1  1  1 NREC =         3 INTLOC =14923
 II,JST,KST,LST = 21  1  1  1 NREC =         3 INTLOC =14923
 II,JST,KST,LST = 22  1  1  1 NREC =         3 INTLOC =14923
 II,JST,KST,LST = 23  1  1  1 NREC =         7 INTLOC = 4907
 II,JST,KST,LST = 24  1  1  1 NREC =         7 INTLOC = 4907
 II,JST,KST,LST = 25  1  1  1 NREC =         7 INTLOC = 4907
 II,JST,KST,LST = 26  1  1  1 NREC =        11 INTLOC =12760
 II,JST,KST,LST = 27  1  1  1 NREC =        11 INTLOC =12760
 II,JST,KST,LST = 28  1  1  1 NREC =        11 INTLOC =12760
 SCHWARZ INEQUALITY TEST SKIPPED       10512 INTEGRAL BLOCKS.
 TOTAL NUMBER OF NONZERO TWO-ELECTRON INTEGRALS =             3272511
        220 INTEGRAL RECORDS WERE STORED ON DISK FILE  8.
  ...... END OF TWO-ELECTRON INTEGRALS .....
 CPU     0: STEP CPU TIME=     0.11 TOTAL CPU TIME=        0.1 (    0.0 MIN)
 TOTAL WALL CLOCK TIME=        0.1 SECONDS, CPU UTILIZATION IS 100.00%

          --------------------------
                 RHF SCF CALCULATION
          --------------------------

     NUCLEAR ENERGY =       120.1341455272
     MAXIT =   30     NPUNCH=    2
     EXTRAP=T  DAMP=F  SHIFT=F  RSTRCT=F  DIIS=F  DEM=F  SOSCF=T
     DENSITY MATRIX CONV=  1.00E-05
     SOSCF WILL OPTIMIZE    1024 ORBITAL ROTATIONS, SOGTOL=   0.250
     MEMORY REQUIRED FOR RHF ITERS=     80016 WORDS.

 ITER EX DEM     TOTAL ENERGY        E CHANGE  DENSITY CHANGE     ORB. GRAD
   1  0  0     -227.0466011768  -227.0466011768   0.302325879   0.000000000
          ---------------START SECOND ORDER SCF---------------
   2  1  0     -227.6912645806    -0.6446634038   0.233336811   0.115384449
   3  2  0     -227.7213161425    -0.0300515620   0.114684810   0.100351757
   4  3  0     -227.8089553035    -0.0876391610   0.021129857   0.010350695
   5  4  0     -227.8105825631    -0.0016272596   0.004908901   0.004066866
   6  5  0     -227.8106919651    -0.0001094020   0.002569441   0.000639123
   7  6  0     -227.8107033978    -0.0000114327   0.000830284   0.000392633
   8  7  0     -227.8107045358    -0.0000011380   0.000167431   0.000091020
   9  8  0     -227.8107046478    -0.0000001120   0.000044879   0.000019621
  10  9  0     -227.8107046562    -0.0000000084   0.000016233   0.000005175
  11 10  0     -227.8107046571    -0.0000000008   0.000004104   0.000001464
  12 11  0     -227.8107046571    -0.0000000001   0.000001008   0.000000499

          -----------------
          DENSITY CONVERGED
          -----------------
     TIME TO FORM FOCK OPERATORS=       0.2 SECONDS (       0.0 SEC/ITER)
     TIME TO SOLVE SCF EQUATIONS=       0.0 SECONDS (       0.0 SEC/ITER)

 FINAL RHF ENERGY IS     -227.8107046571 AFTER  12 ITERATIONS

          ------------
          EIGENVECTORS
          ------------

                      1          2          3          4          5
                  -20.6114   -20.5498   -11.3964   -11.2633    -1.4508
                     A          A          A          A          A   
    1  O  1  S   -0.000317   0.994701  -0.000235  -0.000045  -0.100421
    2  O  1  S    0.000032   0.020951   0.000678  -0.000248   0.222326
    3  O  1  X    0.000037   0.000160  -0.000022  -0.000040  -0.003088
    4  O  1  Y   -0.000042   0.001510   0.000280  -0.000010   0.083026
    5  O  1  Z    0.000000   0.000000   0.000000   0.000000   0.000000
    6  O  1  S   -0.000404   0.004438  -0.003627   0.001110   0.195327
    7  O  1  X    0.000019  -0.000063   0.000654  -0.000266  -0.007467
    8  O  1  Y   -0.000111  -0.000063  -0.001798   0.000415   0.033847
    9  O  1  Z    0.000000   0.000000   0.000000   0.000000   0.000000
   10  O  1 XX    0.000028  -0.003889   0.000266  -0.000136  -0.001751
   11  O  1 YY   -0.000024  -0.003639   0.000030   0.000025   0.012604
   12  O  1 ZZ   -0.000008  -0.004103   0.000397  -0.000249  -0.000302
   13  O  1 XY    0.000040   0.000004   0.000211  -0.000040  -0.000457
   14  O  1 XZ    0.000000   0.000000   0.000000   0.000000   0.000000
   15  O  1 YZ    0.000000   0.000000   0.000000   0.000000   0.000000
   16  C  2  S   -0.000004   0.000006   0.002423   0.995787  -0.015638
   17  C  2  S    0.000006   0.000015   0.000002   0.028173   0.031896
   18  C  2  X   -0.000008  -0.000022   0.000107  -0.000251  -0.022909
   19  C  2  Y   -0.000007   0.000012   0.000022  -0.000237  -0.012559
   20  C  2  Z    0.000000   0.000000   0.000000   0.000000   0.000000
   21  C  2  S    0.000464  -0.000313   0.005394  -0.015586  -0.002247
   22  C  2  X   -0.000057   0.000133  -0.002516   0.001260   0.002608
   23  C  2  Y    0.000013   0.000095  -0.001034   0.000960   0.006187
   24  C  2  Z    0.000000   0.000000   0.000000   0.000000   0.000000
   25  C  2 XX   -0.000063   0.000087  -0.000510  -0.001602   0.005099
   26  C  2 YY    0.000009  -0.000040  -0.000359  -0.001599   0.001407
   27  C  2 ZZ   -0.000001  -0.000005  -0.000256  -0.001553  -0.000264
   28  C  2 XY   -0.000001  -0.000015  -0.000165  -0.000034   0.004188
   29  C  2 XZ    0.000000   0.000000   0.000000   0.000000   0.000000
   30  C  2 YZ    0.000000   0.000000   0.000000   0.000000   0.000000
   31  C  3  S    0.000000  -0.000003   0.995917  -0.002831  -0.109896
   32  C  3  S    0.000390   0.000517   0.025699  -0.000007   0.213143
   33  C  3  X   -0.000268  -0.000005  -0.000840   0.000017  -0.086871
   34  C  3  Y    0.000190  -0.000002   0.000221   0.000008  -0.032686
   35  C  3  Z    0.000000   0.000000   0.000000   0.000000   0.000000
   36  C  3  S   -0.000108  -0.000252  -0.006843   0.003804   0.048737
   37  C  3  X   -0.000226   0.000282  -0.003864   0.002609   0.028053
   38  C  3  Y   -0.000540   0.000533  -0.003982   0.001570   0.008794
   39  C  3  Z    0.000000   0.000000   0.000000   0.000000   0.000000
   40  C  3 XX   -0.000049  -0.000073  -0.001010  -0.000577   0.005359
   41  C  3 YY   -0.000011  -0.000742  -0.000578  -0.000457   0.014050
   42  C  3 ZZ   -0.000050  -0.000040  -0.002237  -0.000177  -0.017352
   43  C  3 XY    0.000013  -0.000097   0.000028  -0.000212  -0.010289
   44  C  3 XZ    0.000000   0.000000   0.000000   0.000000   0.000000
   45  C  3 YZ    0.000000   0.000000   0.000000   0.000000   0.000000
   46  O  4  S    0.994643   0.000317  -0.000105  -0.000036  -0.163724
   47  O  4  S    0.021192  -0.000059   0.000570  -0.000261   0.366804
   48  O  4  X   -0.000003  -0.000030   0.000109  -0.000091   0.033775
   49  O  4  Y   -0.001282   0.000045  -0.000128   0.000014  -0.078467
   50  O  4  Z    0.000000   0.000000   0.000000   0.000000   0.000000
   51  O  4  S    0.004161   0.000251  -0.001351   0.000764   0.338724
   52  O  4  X   -0.000102  -0.000024  -0.000429   0.000382   0.028242
   53  O  4  Y    0.000512  -0.000107   0.001728  -0.000289  -0.040334
   54  O  4  Z    0.000000   0.000000   0.000000   0.000000   0.000000
   55  O  4 XX   -0.004045   0.000024  -0.000414  -0.000015   0.011694
   56  O  4 YY   -0.003983  -0.000079  -0.000282  -0.000082   0.008010
   57  O  4 ZZ   -0.003967  -0.000083   0.000449  -0.000216  -0.000398
   58  O  4 XY    0.000147   0.000053   0.000373  -0.000060  -0.008521
   59  O  4 XZ    0.000000   0.000000   0.000000   0.000000   0.000000
   60  O  4 YZ    0.000000   0.000000   0.000000   0.000000   0.000000
   61  H  5  S    0.000210  -0.000065   0.000428   0.000009   0.097995
   62  H  5  S   -0.000426  -0.000068   0.000147   0.000256   0.008360
   63  H  5  X   -0.000243  -0.000037   0.000238   0.000027   0.015796
   64  H  5  Y   -0.000173  -0.000018   0.000015  -0.000005   0.009846
   65  H  5  Z    0.000000   0.000000   0.000000   0.000000   0.000000
   66  H  6  S    0.000015   0.000014  -0.000178   0.000116   0.006970
   67  H  6  S   -0.000175  -0.000038  -0.000047   0.002243  -0.001911
   68  H  6  X   -0.000001   0.000022  -0.000037  -0.000090  -0.000357
   69  H  6  Y    0.000023   0.000004  -0.000083   0.000190  -0.000751
   70  H  6  Z    0.000000   0.000000   0.000000   0.000000   0.000000
   71  H  7  S   -0.000013   0.000017  -0.000152   0.000093   0.005270
   72  H  7  S   -0.000036  -0.000010   0.000333   0.002340   0.000970
   73  H  7  X   -0.000001  -0.000008  -0.000051   0.000096  -0.000288
   74  H  7  Y    0.000000  -0.000009  -0.000020  -0.000083  -0.000058
   75  H  7  Z    0.000004   0.000006  -0.000076   0.000198  -0.000479
   76  H  8  S   -0.000013   0.000017  -0.000152   0.000093   0.005270
   77  H  8  S   -0.000036  -0.000010   0.000333   0.002340   0.000970
   78  H  8  X   -0.000001  -0.000008  -0.000051   0.000096  -0.000288
   79  H  8  Y    0.000000  -0.000009  -0.000020  -0.000083  -0.000058
   80  H  8  Z   -0.000004  -0.000006   0.000076  -0.000198   0.000479

                      6          7          8          9         10
                   -1.3351    -1.0313    -0.8186    -0.6919    -0.6699
                     A          A          A          A          A   
    1  O  1  S   -0.170936   0.043372   0.041237   0.087427  -0.001914
    2  O  1  S    0.373202  -0.095441  -0.092751  -0.199285   0.001738
    3  O  1  X    0.019352   0.034566  -0.025490   0.049829   0.255118
    4  O  1  Y    0.100083   0.011587   0.092909   0.350572  -0.032672
    5  O  1  Z    0.000000   0.000000   0.000000   0.000000   0.000000
    6  O  1  S    0.371366  -0.115047  -0.131376  -0.330087   0.024186
    7  O  1  X    0.008395   0.013358  -0.018744   0.022662   0.159849
    8  O  1  Y    0.046133   0.004606   0.049480   0.195845  -0.015366
    9  O  1  Z    0.000000   0.000000   0.000000   0.000000   0.000000
   10  O  1 XX   -0.002328   0.000217  -0.004074  -0.006039   0.002084
   11  O  1 YY    0.012545   0.000037   0.007946   0.025145  -0.003791
   12  O  1 ZZ   -0.003658   0.001493  -0.000247  -0.005253  -0.000026
   13  O  1 XY    0.003030   0.003455  -0.003612   0.005870   0.017913
   14  O  1 XZ    0.000000   0.000000   0.000000   0.000000   0.000000
   15  O  1 YZ    0.000000   0.000000   0.000000   0.000000   0.000000
   16  C  2  S   -0.005749  -0.174210   0.074727   0.008452   0.031286
   17  C  2  S    0.011216   0.330638  -0.136101  -0.012167  -0.053107
   18  C  2  X   -0.001838  -0.057027  -0.130904  -0.005893  -0.175849
   19  C  2  Y   -0.013333  -0.033525  -0.036744  -0.139589  -0.185584
   20  C  2  Z    0.000000   0.000000   0.000000   0.000000   0.000000
   21  C  2  S   -0.004090   0.305909  -0.194122  -0.038742  -0.132700
   22  C  2  X    0.009066  -0.012170  -0.031655   0.017159  -0.055429
   23  C  2  Y   -0.009637  -0.002402   0.002733  -0.054695  -0.082984
   24  C  2  Z    0.000000   0.000000   0.000000   0.000000   0.000000
   25  C  2 XX   -0.000788   0.005933   0.010224   0.002409   0.010236
   26  C  2 YY    0.002768   0.000172   0.000107  -0.002725  -0.001683
   27  C  2 ZZ   -0.000051  -0.002063  -0.006496   0.002856  -0.007174
   28  C  2 XY    0.003119   0.006255   0.008959   0.009356   0.017609
   29  C  2 XZ    0.000000   0.000000   0.000000   0.000000   0.000000
   30  C  2 YZ    0.000000   0.000000   0.000000   0.000000   0.000000
   31  C  3  S   -0.051767  -0.077485  -0.100050  -0.076242  -0.024326
   32  C  3  S    0.102480   0.170271   0.222723   0.182667   0.052636
   33  C  3  X    0.054041   0.142305  -0.121213   0.058323   0.327590
   34  C  3  Y   -0.203899   0.138560   0.118540  -0.192127   0.027530
   35  C  3  Z    0.000000   0.000000   0.000000   0.000000   0.000000
   36  C  3  S    0.036386   0.098446   0.166171   0.125298   0.102976
   37  C  3  X   -0.001060   0.024531   0.012867   0.034674   0.107926
   38  C  3  Y    0.027211   0.022143   0.034079  -0.007385   0.052418
   39  C  3  Z    0.000000   0.000000   0.000000   0.000000   0.000000
   40  C  3 XX   -0.025343   0.011004   0.003598   0.002473  -0.011950
   41  C  3 YY    0.026358  -0.001095   0.004033  -0.004775   0.005961
   42  C  3 ZZ   -0.007982  -0.005887  -0.011030  -0.005810   0.001265
   43  C  3 XY    0.017519   0.011177  -0.016990   0.013819   0.001918
   44  C  3 XZ    0.000000   0.000000   0.000000   0.000000   0.000000
   45  C  3 YZ    0.000000   0.000000   0.000000   0.000000   0.000000
   46  O  4  S    0.127081   0.028218   0.027432   0.037922  -0.038077
   47  O  4  S   -0.283293  -0.063250  -0.064494  -0.089754   0.088798
   48  O  4  X    0.006067   0.101300   0.394364  -0.178023  -0.125217
   49  O  4  Y    0.028331   0.027807  -0.021586  -0.249736   0.303580
   50  O  4  Z    0.000000   0.000000   0.000000   0.000000   0.000000
   51  O  4  S   -0.291890  -0.078736  -0.074779  -0.141727   0.144679
   52  O  4  X   -0.009377   0.043195   0.218179  -0.113769  -0.084271
   53  O  4  Y    0.012034   0.011428  -0.016730  -0.171523   0.195265
   54  O  4  Z    0.000000   0.000000   0.000000   0.000000   0.000000
   55  O  4 XX   -0.004882   0.004802   0.005968  -0.005811   0.005608
   56  O  4 YY   -0.000713  -0.002911  -0.002270   0.016184  -0.016822
   57  O  4 ZZ    0.000659   0.000187  -0.001952  -0.005655   0.006119
   58  O  4 XY   -0.001012  -0.005569  -0.026930   0.006481   0.011398
   59  O  4 XZ    0.000000   0.000000   0.000000   0.000000   0.000000
   60  O  4 YZ    0.000000   0.000000   0.000000   0.000000   0.000000
   61  H  5  S   -0.080903  -0.065559  -0.185437   0.133138  -0.016644
   62  H  5  S   -0.004803  -0.016393  -0.072092   0.049253  -0.003840
   63  H  5  X   -0.011323  -0.006753  -0.011044   0.009620  -0.007222
   64  H  5  Y   -0.009392  -0.005904  -0.017163   0.005659   0.006891
   65  H  5  Z    0.000000   0.000000   0.000000   0.000000   0.000000
   66  H  6  S   -0.000583   0.105248  -0.061344  -0.087904  -0.111074
   67  H  6  S    0.001350   0.021126  -0.033361  -0.067781  -0.059094
   68  H  6  X    0.000735   0.001704  -0.003575   0.000281  -0.004684
   69  H  6  Y    0.000479  -0.010725   0.004952   0.005315   0.005301
   70  H  6  Z    0.000000   0.000000   0.000000   0.000000   0.000000
   71  H  7  S    0.003564   0.104618  -0.090073   0.009142  -0.061304
   72  H  7  S   -0.000209   0.025550  -0.044004   0.002028  -0.039077
   73  H  7  X   -0.000574  -0.006514   0.002809  -0.000830  -0.000615
   74  H  7  Y    0.000033   0.001842  -0.002224  -0.002028  -0.003810
   75  H  7  Z   -0.000282  -0.008498   0.006385  -0.000107   0.003617
   76  H  8  S    0.003564   0.104618  -0.090073   0.009142  -0.061304
   77  H  8  S   -0.000209   0.025550  -0.044004   0.002028  -0.039077
   78  H  8  X   -0.000574  -0.006514   0.002809  -0.000830  -0.000615
   79  H  8  Y    0.000033   0.001842  -0.002224  -0.002028  -0.003810
   80  H  8  Z    0.000282   0.008498  -0.006385   0.000107  -0.003617

                     11         12         13         14         15
                   -0.6397    -0.5715    -0.5680    -0.5597    -0.4626
                     A          A          A          A          A   
    1  O  1  S    0.000000   0.030894   0.007853   0.000000   0.000000
    2  O  1  S    0.000000  -0.073001  -0.021228   0.000000   0.000000
    3  O  1  X    0.000000   0.040003   0.008225   0.000000   0.000000
    4  O  1  Y    0.000000   0.347623   0.083408   0.000000   0.000000
    5  O  1  Z    0.211828   0.000000   0.000000   0.102684   0.477225
    6  O  1  S    0.000000  -0.125328  -0.028875   0.000000   0.000000
    7  O  1  X    0.000000   0.034532   0.001064   0.000000   0.000000
    8  O  1  Y    0.000000   0.222354   0.056632   0.000000   0.000000
    9  O  1  Z    0.137883   0.000000   0.000000   0.068039   0.368172
   10  O  1 XX    0.000000  -0.008194  -0.002468   0.000000   0.000000
   11  O  1 YY    0.000000   0.023871   0.003017   0.000000   0.000000
   12  O  1 ZZ    0.000000  -0.005490  -0.002305   0.000000   0.000000
   13  O  1 XY    0.000000   0.001933   0.002402   0.000000   0.000000
   14  O  1 XZ    0.001439   0.000000   0.000000  -0.000273   0.003737
   15  O  1 YZ    0.020164   0.000000   0.000000   0.008845   0.034424
   16  C  2  S    0.000000   0.005591  -0.002747   0.000000   0.000000
   17  C  2  S    0.000000  -0.013788   0.006901   0.000000   0.000000
   18  C  2  X    0.000000   0.175689  -0.293559   0.000000   0.000000
   19  C  2  Y    0.000000   0.144655   0.302468   0.000000   0.000000
   20  C  2  Z    0.260185   0.000000   0.000000  -0.336670  -0.081325
   21  C  2  S    0.000000  -0.046287   0.006133   0.000000   0.000000
   22  C  2  X    0.000000   0.095063  -0.150250   0.000000   0.000000
   23  C  2  Y    0.000000   0.054553   0.172159   0.000000   0.000000
   24  C  2  Z    0.131008   0.000000   0.000000  -0.191272  -0.089421
   25  C  2 XX    0.000000  -0.012135  -0.001720   0.000000   0.000000
   26  C  2 YY    0.000000   0.006658   0.025100   0.000000   0.000000
   27  C  2 ZZ    0.000000   0.005607  -0.023101   0.000000   0.000000
   28  C  2 XY    0.000000  -0.012441   0.000925   0.000000   0.000000
   29  C  2 XZ    0.007136   0.000000   0.000000  -0.021046  -0.008459
   30  C  2 YZ   -0.011530   0.000000   0.000000   0.011167  -0.000537
   31  C  3  S    0.000000   0.011134  -0.018213   0.000000   0.000000
   32  C  3  S    0.000000  -0.023434   0.046310   0.000000   0.000000
   33  C  3  X    0.000000  -0.102799   0.086156   0.000000   0.000000
   34  C  3  Y    0.000000  -0.302673  -0.027280   0.000000   0.000000
   35  C  3  Z    0.253464   0.000000   0.000000   0.093576   0.171759
   36  C  3  S    0.000000  -0.058699   0.030004   0.000000   0.000000
   37  C  3  X    0.000000  -0.031957   0.041206   0.000000   0.000000
   38  C  3  Y    0.000000  -0.003427   0.002515   0.000000   0.000000
   39  C  3  Z    0.121584   0.000000   0.000000   0.070546   0.122666
   40  C  3 XX    0.000000  -0.030381  -0.013061   0.000000   0.000000
   41  C  3 YY    0.000000   0.024946   0.012124   0.000000   0.000000
   42  C  3 ZZ    0.000000  -0.003113  -0.001180   0.000000   0.000000
   43  C  3 XY    0.000000  -0.009325   0.020521   0.000000   0.000000
   44  C  3 XZ   -0.007156   0.000000   0.000000  -0.025140   0.008760
   45  C  3 YZ   -0.002083   0.000000   0.000000  -0.002136  -0.044536
   46  O  4  S    0.000000  -0.043598   0.019701   0.000000   0.000000
   47  O  4  S    0.000000   0.099269  -0.049920   0.000000   0.000000
   48  O  4  X    0.000000   0.058782  -0.150357   0.000000   0.000000
   49  O  4  Y    0.000000   0.363158  -0.030888   0.000000   0.000000
   50  O  4  Z    0.335177   0.000000   0.000000   0.378024  -0.357114
   51  O  4  S    0.000000   0.191803  -0.073491   0.000000   0.000000
   52  O  4  X    0.000000   0.026084  -0.095329   0.000000   0.000000
   53  O  4  Y    0.000000   0.254791  -0.027889   0.000000   0.000000
   54  O  4  Z    0.233685   0.000000   0.000000   0.284526  -0.304660
   55  O  4 XX    0.000000  -0.001759  -0.000039   0.000000   0.000000
   56  O  4 YY    0.000000  -0.015859   0.001971   0.000000   0.000000
   57  O  4 ZZ    0.000000   0.006513  -0.003083   0.000000   0.000000
   58  O  4 XY    0.000000  -0.004423   0.009371   0.000000   0.000000
   59  O  4 XZ    0.009694   0.000000   0.000000   0.006688  -0.002873
   60  O  4 YZ   -0.017437   0.000000   0.000000  -0.017952   0.012219
   61  H  5  S    0.000000  -0.131213   0.073164   0.000000   0.000000
   62  H  5  S    0.000000  -0.084380   0.050062   0.000000   0.000000
   63  H  5  X    0.000000  -0.011633   0.002510   0.000000   0.000000
   64  H  5  Y    0.000000  -0.001246   0.004779   0.000000   0.000000
   65  H  5  Z    0.010177   0.000000   0.000000   0.011578  -0.010028
   66  H  6  S    0.000000   0.073738   0.241347   0.000000   0.000000
   67  H  6  S    0.000000   0.089259   0.190419   0.000000   0.000000
   68  H  6  X    0.000000   0.002199  -0.000017   0.000000   0.000000
   69  H  6  Y    0.000000  -0.002861  -0.011539   0.000000   0.000000
   70  H  6  Z    0.003741   0.000000   0.000000  -0.004301  -0.001011
   71  H  7  S    0.130172   0.036668  -0.150081  -0.187849  -0.051292
   72  H  7  S    0.094525   0.031161  -0.126429  -0.156723  -0.025017
   73  H  7  X   -0.005897   0.001022   0.001243   0.007155   0.000292
   74  H  7  Y    0.001693   0.002953   0.002042  -0.002789  -0.001161
   75  H  7  Z   -0.003947  -0.002059   0.008400   0.005150   0.001014
   76  H  8  S   -0.130172   0.036668  -0.150081   0.187849   0.051292
   77  H  8  S   -0.094525   0.031161  -0.126429   0.156723   0.025017
   78  H  8  X    0.005897   0.001022   0.001243  -0.007155  -0.000292
   79  H  8  Y   -0.001693   0.002953   0.002042   0.002789   0.001161
   80  H  8  Z   -0.003947   0.002059  -0.008400   0.005150   0.001014

                     16         17         18         19         20
                   -0.4459     0.1687     0.2236     0.2546     0.2822
                     A          A          A          A          A   
    1  O  1  S   -0.000081   0.000000  -0.017184  -0.006708   0.008869
    2  O  1  S    0.002553   0.000000   0.025757  -0.003601  -0.049720
    3  O  1  X    0.569127   0.000000  -0.049254   0.087402  -0.054355
    4  O  1  Y   -0.073643   0.000000   0.000917   0.027791  -0.035512
    5  O  1  Z    0.000000  -0.303227   0.000000   0.000000   0.000000
    6  O  1  S   -0.009499   0.000000   0.214884   0.189699   0.035210
    7  O  1  X    0.431903   0.000000  -0.053296   0.078319  -0.049838
    8  O  1  Y   -0.055758   0.000000   0.099472   0.089804  -0.016947
    9  O  1  Z    0.000000  -0.411323   0.000000   0.000000   0.000000
   10  O  1 XX    0.004155   0.000000  -0.007634  -0.003992  -0.001820
   11  O  1 YY   -0.003088   0.000000   0.010441  -0.001934  -0.010010
   12  O  1 ZZ    0.000702   0.000000  -0.010005  -0.006545  -0.013661
   13  O  1 XY    0.024879   0.000000  -0.000384   0.001963   0.005013
   14  O  1 XZ    0.000000   0.001817   0.000000   0.000000   0.000000
   15  O  1 YZ    0.000000   0.004983   0.000000   0.000000   0.000000
   16  C  2  S    0.016635   0.000000  -0.104293  -0.096478   0.008186
   17  C  2  S   -0.037089   0.000000   0.091431   0.067441  -0.015313
   18  C  2  X    0.114370   0.000000   0.037095   0.144830   0.143843
   19  C  2  Y    0.134583   0.000000  -0.011872   0.083005  -0.275526
   20  C  2  Z    0.000000   0.056128   0.000000   0.000000   0.000000
   21  C  2  S   -0.093793   0.000000   1.680432   1.678993  -0.074290
   22  C  2  X    0.072564   0.000000   0.252422   0.509411   0.614682
   23  C  2  Y    0.074139   0.000000  -0.092237   0.280291  -1.242843
   24  C  2  Z    0.000000   0.403569   0.000000   0.000000   0.000000
   25  C  2 XX   -0.005060   0.000000  -0.008424   0.002749  -0.006919
   26  C  2 YY    0.005666   0.000000   0.003885  -0.014288   0.020017
   27  C  2 ZZ    0.000544   0.000000  -0.007848  -0.006952  -0.010674
   28  C  2 XY   -0.007991   0.000000   0.005950  -0.002055   0.000974
   29  C  2 XZ    0.000000  -0.037984   0.000000   0.000000   0.000000
   30  C  2 YZ    0.000000  -0.011138   0.000000   0.000000   0.000000
   31  C  3  S    0.012392   0.000000   0.023998  -0.001204   0.012632
   32  C  3  S   -0.029302   0.000000   0.022335   0.054722  -0.003869
   33  C  3  X   -0.095054   0.000000   0.045284  -0.036287   0.070946
   34  C  3  Y   -0.026476   0.000000  -0.050657   0.041240  -0.056338
   35  C  3  Z    0.000000   0.469443   0.000000   0.000000   0.000000
   36  C  3  S   -0.067839   0.000000  -0.561633  -0.190170  -0.284363
   37  C  3  X    0.054670   0.000000  -0.056932   0.084307  -0.034963
   38  C  3  Y   -0.048816   0.000000  -0.023522   0.182387  -0.020200
   39  C  3  Z    0.000000   0.561029   0.000000   0.000000   0.000000
   40  C  3 XX    0.000241   0.000000   0.018616  -0.007120   0.027848
   41  C  3 YY    0.001202   0.000000  -0.009260   0.011678  -0.017417
   42  C  3 ZZ   -0.002530   0.000000  -0.003821   0.001699  -0.005392
   43  C  3 XY   -0.053583   0.000000   0.002959   0.000274  -0.015086
   44  C  3 XZ    0.000000   0.014069   0.000000   0.000000   0.000000
   45  C  3 YZ    0.000000   0.026152   0.000000   0.000000   0.000000
   46  O  4  S   -0.008546   0.000000  -0.072265   0.044822  -0.001677
   47  O  4  S    0.006971   0.000000   0.079411  -0.033426   0.015879
   48  O  4  X    0.124161   0.000000  -0.109182   0.143777   0.110607
   49  O  4  Y   -0.226996   0.000000  -0.110564   0.118331  -0.026722
   50  O  4  Z    0.000000  -0.199052   0.000000   0.000000   0.000000
   51  O  4  S    0.111630   0.000000   0.929427  -0.633723  -0.054698
   52  O  4  X    0.107900   0.000000  -0.258868   0.349887   0.215193
   53  O  4  Y   -0.189518   0.000000  -0.315700   0.221748   0.019810
   54  O  4  Z    0.000000  -0.251325   0.000000   0.000000   0.000000
   55  O  4 XX   -0.007616   0.000000  -0.029225   0.030657  -0.006999
   56  O  4 YY    0.005397   0.000000  -0.016595   0.014566   0.008407
   57  O  4 ZZ   -0.007621   0.000000  -0.036631   0.026276   0.003929
   58  O  4 XY   -0.008601   0.000000   0.005171  -0.015079  -0.002722
   59  O  4 XZ    0.000000   0.021368   0.000000   0.000000   0.000000
   60  O  4 YZ    0.000000  -0.000100   0.000000   0.000000   0.000000
   61  H  5  S    0.008463   0.000000  -0.087268   0.055943   0.008042
   62  H  5  S   -0.047479   0.000000  -1.177151   1.095687   0.292135
   63  H  5  X    0.003949   0.000000  -0.003748   0.001563   0.006988
   64  H  5  Y   -0.000492   0.000000  -0.004135   0.004391  -0.002525
   65  H  5  Z    0.000000  -0.009366   0.000000   0.000000   0.000000
   66  H  6  S    0.064405   0.000000   0.022183  -0.032100   0.089084
   67  H  6  S    0.074240   0.000000  -0.460337  -0.921937   1.820440
   68  H  6  X    0.003017   0.000000   0.003740  -0.001445   0.001058
   69  H  6  Y   -0.002333   0.000000   0.000758   0.000314  -0.004701
   70  H  6  Z    0.000000  -0.001081   0.000000   0.000000   0.000000
   71  H  7  S    0.006586  -0.103695  -0.019309  -0.000217  -0.041550
   72  H  7  S    0.021873  -0.593922  -0.851681  -0.894183  -0.765597
   73  H  7  X    0.001391  -0.002709   0.001362   0.005044   0.004128
   74  H  7  Y    0.001912  -0.004290   0.000211   0.002711  -0.005762
   75  H  7  Z   -0.000728   0.003693   0.001432  -0.000463  -0.000922
   76  H  8  S    0.006586   0.103695  -0.019309  -0.000217  -0.041550
   77  H  8  S    0.021873   0.593922  -0.851681  -0.894183  -0.765597
   78  H  8  X    0.001391   0.002709   0.001362   0.005044   0.004128
   79  H  8  Y    0.001912   0.004290   0.000211   0.002711  -0.005762
   80  H  8  Z    0.000728   0.003693  -0.001432   0.000463   0.000922

                     21         22         23         24         25
                    0.3176     0.3913     0.4748     0.5105     0.7368
                     A          A          A          A          A   
    1  O  1  S    0.000000   0.022948  -0.120303   0.010128   0.000000
    2  O  1  S    0.000000  -0.047788   0.051860   0.004923   0.000000
    3  O  1  X    0.000000  -0.054105   0.010163  -0.152933   0.000000
    4  O  1  Y    0.000000  -0.117031   0.124803   0.041073   0.000000
    5  O  1  Z   -0.165504   0.000000   0.000000   0.000000  -0.018484
    6  O  1  S    0.000000  -0.204418   2.703073  -0.370913   0.000000
    7  O  1  X    0.000000  -0.210563  -0.039630  -0.532549   0.000000
    8  O  1  Y    0.000000  -0.249939   1.133153  -0.019036   0.000000
    9  O  1  Z   -0.262799   0.000000   0.000000   0.000000  -0.038688
   10  O  1 XX    0.000000  -0.005043  -0.069437   0.021099   0.000000
   11  O  1 YY    0.000000  -0.010499   0.009523  -0.005256   0.000000
   12  O  1 ZZ    0.000000   0.013627  -0.087440  -0.003368   0.000000
   13  O  1 XY    0.000000  -0.003303  -0.001115   0.002411   0.000000
   14  O  1 XZ    0.002450   0.000000   0.000000   0.000000   0.004118
   15  O  1 YZ    0.002156   0.000000   0.000000   0.000000  -0.057257
   16  C  2  S    0.000000   0.084199   0.029468   0.020967   0.000000
   17  C  2  S    0.000000   0.005054   0.079981   0.021480   0.000000
   18  C  2  X    0.000000   0.145765  -0.153916  -0.135627   0.000000
   19  C  2  Y    0.000000   0.043280  -0.142759   0.085730   0.000000
   20  C  2  Z   -0.347185   0.000000   0.000000   0.000000  -0.464117
   21  C  2  S    0.000000  -1.899999  -1.630965  -0.673960   0.000000
   22  C  2  X    0.000000   1.790019   1.041355   0.033316   0.000000
   23  C  2  Y    0.000000   0.967704  -0.115293   1.129347   0.000000
   24  C  2  Z   -1.476842   0.000000   0.000000   0.000000   0.919834
   25  C  2 XX    0.000000   0.016206   0.037299  -0.016067   0.000000
   26  C  2 YY    0.000000   0.002824  -0.019533   0.053243   0.000000
   27  C  2 ZZ    0.000000  -0.009407   0.008951  -0.021303   0.000000
   28  C  2 XY    0.000000   0.029702  -0.003792   0.022689   0.000000
   29  C  2 XZ   -0.007994   0.000000   0.000000   0.000000  -0.042124
   30  C  2 YZ   -0.012342   0.000000   0.000000   0.000000   0.054461
   31  C  3  S    0.000000  -0.137292   0.041074   0.056483   0.000000
   32  C  3  S    0.000000   0.162728   0.164840   0.015396   0.000000
   33  C  3  X    0.000000   0.184075   0.087656   0.428772   0.000000
   34  C  3  Y    0.000000   0.171821   0.188589  -0.122793   0.000000
   35  C  3  Z    0.204344   0.000000   0.000000   0.000000  -0.783119
   36  C  3  S    0.000000   2.994630  -1.558005  -0.714038   0.000000
   37  C  3  X    0.000000   0.956648   1.072355   2.055323   0.000000
   38  C  3  Y    0.000000   0.826880   2.706569  -1.119737   0.000000
   39  C  3  Z    0.611503   0.000000   0.000000   0.000000   0.641289
   40  C  3 XX    0.000000   0.008845   0.022200   0.018710   0.000000
   41  C  3 YY    0.000000  -0.003043   0.009825   0.013741   0.000000
   42  C  3 ZZ    0.000000   0.015015  -0.015162  -0.020811   0.000000
   43  C  3 XY    0.000000   0.004847   0.011503  -0.006894   0.000000
   44  C  3 XZ   -0.003261   0.000000   0.000000   0.000000   0.012775
   45  C  3 YZ   -0.002357   0.000000   0.000000   0.000000   0.007862
   46  O  4  S    0.000000   0.022256  -0.004536  -0.086824   0.000000
   47  O  4  S    0.000000  -0.021876  -0.003347   0.148170   0.000000
   48  O  4  X    0.000000  -0.136515   0.043566   0.276400   0.000000
   49  O  4  Y    0.000000   0.045165  -0.086653  -0.044464   0.000000
   50  O  4  Z   -0.064533   0.000000   0.000000   0.000000  -0.088693
   51  O  4  S    0.000000  -0.336065   0.081238   1.477291   0.000000
   52  O  4  X    0.000000  -0.455981  -0.047844   0.987991   0.000000
   53  O  4  Y    0.000000   0.013498  -0.464064  -0.460090   0.000000
   54  O  4  Z   -0.153000   0.000000   0.000000   0.000000  -0.033797
   55  O  4 XX    0.000000   0.011080   0.020253   0.000721   0.000000
   56  O  4 YY    0.000000   0.000611   0.020263  -0.000008   0.000000
   57  O  4 ZZ    0.000000   0.013737  -0.032791  -0.018108   0.000000
   58  O  4 XY    0.000000   0.002108   0.012194  -0.011299   0.000000
   59  O  4 XZ    0.003964   0.000000   0.000000   0.000000  -0.025779
   60  O  4 YZ   -0.005871   0.000000   0.000000   0.000000   0.035656
   61  H  5  S    0.000000  -0.032105   0.077449   0.001928   0.000000
   62  H  5  S    0.000000  -0.201849   0.160101   0.565642   0.000000
   63  H  5  X    0.000000  -0.007566  -0.017003   0.005186   0.000000
   64  H  5  Y    0.000000   0.003297  -0.003823  -0.004071   0.000000
   65  H  5  Z   -0.000430   0.000000   0.000000   0.000000   0.000743
   66  H  6  S    0.000000  -0.057991  -0.090745   0.088221   0.000000
   67  H  6  S    0.000000   0.097796   0.552565  -0.750841   0.000000
   68  H  6  X    0.000000   0.012856  -0.017541   0.014784   0.000000
   69  H  6  Y    0.000000   0.006010  -0.007337   0.011304   0.000000
   70  H  6  Z   -0.009474   0.000000   0.000000   0.000000   0.026735
   71  H  7  S    0.014297  -0.073952   0.021012  -0.080365  -0.320544
   72  H  7  S    1.481498  -0.188475   0.001445   0.360788  -0.175528
   73  H  7  X   -0.003563   0.005198   0.010821  -0.004747  -0.003945
   74  H  7  Y   -0.005359   0.004112   0.005516  -0.005188  -0.003657
   75  H  7  Z   -0.003930  -0.000429   0.003983   0.002790   0.028931
   76  H  8  S   -0.014297  -0.073952   0.021012  -0.080365   0.320544
   77  H  8  S   -1.481498  -0.188475   0.001445   0.360788   0.175528
   78  H  8  X    0.003563   0.005198   0.010821  -0.004747   0.003945
   79  H  8  Y    0.005359   0.004112   0.005516  -0.005188   0.003657
   80  H  8  Z   -0.003930   0.000429  -0.003983  -0.002790   0.028931

                     26         27         28         29         30
                    0.7544     0.7995     0.8242     0.8308     0.9028
                     A          A          A          A          A   
    1  O  1  S    0.010800   0.015338   0.000000   0.027132   0.029001
    2  O  1  S    0.079061   0.011502   0.000000   0.057553  -0.097569
    3  O  1  X    0.049763   0.218232   0.000000   0.047488  -0.049787
    4  O  1  Y    0.044558   0.062081   0.000000  -0.000482  -0.358681
    5  O  1  Z    0.000000   0.000000   0.139578   0.000000   0.000000
    6  O  1  S   -0.539212  -0.663370   0.000000  -0.815807   0.696058
    7  O  1  X    0.057401   0.171598   0.000000  -0.389565  -0.076444
    8  O  1  Y   -0.214427  -0.348660   0.000000  -0.295233  -0.092811
    9  O  1  Z    0.000000   0.000000   0.172818   0.000000   0.000000
   10  O  1 XX    0.025809   0.011570   0.000000   0.011876  -0.049147
   11  O  1 YY    0.014113  -0.039163   0.000000   0.049756   0.199044
   12  O  1 ZZ    0.047974   0.015915   0.000000   0.034283  -0.066101
   13  O  1 XY    0.054520  -0.028362   0.000000  -0.057504   0.034035
   14  O  1 XZ    0.000000   0.000000   0.017894   0.000000   0.000000
   15  O  1 YZ    0.000000   0.000000   0.046866   0.000000   0.000000
   16  C  2  S    0.002251  -0.030395   0.000000   0.000322   0.001591
   17  C  2  S   -0.110676   0.348030   0.000000   0.102800   0.063495
   18  C  2  X    0.388670  -0.762069   0.000000   0.245740  -0.072124
   19  C  2  Y   -0.257929  -0.487001   0.000000  -0.648119   0.024458
   20  C  2  Z    0.000000   0.000000  -0.620276   0.000000   0.000000
   21  C  2  S    0.445158   0.210881   0.000000  -0.545290  -0.922539
   22  C  2  X   -0.614308   0.723647   0.000000  -0.894988   0.510118
   23  C  2  Y    0.620549   0.464021   0.000000   2.001193  -0.049544
   24  C  2  Z    0.000000   0.000000   1.674563   0.000000   0.000000
   25  C  2 XX   -0.015231   0.013447   0.000000  -0.053762  -0.079386
   26  C  2 YY   -0.044001   0.015195   0.000000  -0.015324   0.055664
   27  C  2 ZZ    0.031460   0.028787   0.000000   0.083622   0.020723
   28  C  2 XY    0.042969   0.007458   0.000000   0.021028  -0.018436
   29  C  2 XZ    0.000000   0.000000  -0.034758   0.000000   0.000000
   30  C  2 YZ    0.000000   0.000000   0.058375   0.000000   0.000000
   31  C  3  S    0.013189   0.063330   0.000000  -0.000684  -0.046227
   32  C  3  S   -0.537387  -0.222141   0.000000   0.447051   0.419215
   33  C  3  X    0.648758   0.037785   0.000000  -0.489129  -0.106566
   34  C  3  Y   -0.298156  -0.130435   0.000000   0.020062  -0.907289
   35  C  3  Z    0.000000   0.000000   0.672032   0.000000   0.000000
   36  C  3  S    1.006200   1.017954   0.000000  -0.284416   0.176552
   37  C  3  X   -0.986629  -0.990274   0.000000   1.900021   0.523717
   38  C  3  Y   -0.075801  -0.461821   0.000000  -1.357574   1.731118
   39  C  3  Z    0.000000   0.000000  -1.416490   0.000000   0.000000
   40  C  3 XX   -0.014032   0.123765   0.000000   0.017263   0.149066
   41  C  3 YY   -0.020736   0.051660   0.000000   0.015576  -0.175893
   42  C  3 ZZ   -0.026162  -0.072911   0.000000   0.028232   0.061509
   43  C  3 XY   -0.073250   0.078565   0.000000   0.042581  -0.057572
   44  C  3 XZ    0.000000   0.000000  -0.013567   0.000000   0.000000
   45  C  3 YZ    0.000000   0.000000   0.002508   0.000000   0.000000
   46  O  4  S   -0.005476  -0.006494   0.000000  -0.008442  -0.002704
   47  O  4  S    0.076313   0.131197   0.000000  -0.015554  -0.016918
   48  O  4  X    0.119609   0.062981   0.000000  -0.045068   0.122061
   49  O  4  Y   -0.173541   0.024405   0.000000   0.116322  -0.126960
   50  O  4  Z    0.000000   0.000000   0.077883   0.000000   0.000000
   51  O  4  S   -0.521177  -0.582100   0.000000   1.056752  -0.238196
   52  O  4  X   -0.037801  -0.117649   0.000000   0.311556  -0.303302
   53  O  4  Y    0.132998   0.242998   0.000000  -0.255707  -0.064457
   54  O  4  Z    0.000000   0.000000   0.183783   0.000000   0.000000
   55  O  4 XX   -0.060927  -0.075020   0.000000   0.090542  -0.117506
   56  O  4 YY   -0.002295   0.051413   0.000000   0.025841   0.016104
   57  O  4 ZZ    0.064992   0.068973   0.000000  -0.055464   0.019852
   58  O  4 XY    0.114817  -0.024326   0.000000  -0.054312  -0.038714
   59  O  4 XZ    0.000000   0.000000   0.042307   0.000000   0.000000
   60  O  4 YZ    0.000000   0.000000   0.002617   0.000000   0.000000
   61  H  5  S    0.134865  -0.245966   0.000000  -0.014857  -0.204679
   62  H  5  S   -0.317709   0.083998   0.000000   0.282611   0.300553
   63  H  5  X    0.024981   0.049226   0.000000  -0.041271   0.006716
   64  H  5  Y   -0.035211  -0.006405   0.000000   0.015693   0.026416
   65  H  5  Z    0.000000   0.000000  -0.013521   0.000000   0.000000
   66  H  6  S   -0.324900  -0.127786   0.000000  -0.284045   0.147594
   67  H  6  S   -0.233593  -0.035958   0.000000  -0.681849  -0.101108
   68  H  6  X   -0.008197  -0.008583   0.000000   0.017525  -0.023754
   69  H  6  Y    0.019518   0.008202   0.000000   0.068675  -0.009166
   70  H  6  Z    0.000000   0.000000   0.034762   0.000000   0.000000
   71  H  7  S    0.120212  -0.088720  -0.272761   0.190641  -0.005575
   72  H  7  S    0.073438  -0.031959  -0.319899   0.315243   0.025634
   73  H  7  X   -0.013811   0.000442   0.037062  -0.052253  -0.003096
   74  H  7  Y    0.027075  -0.002774   0.020045   0.013594  -0.003345
   75  H  7  Z   -0.007164   0.012774   0.037892   0.005341   0.006053
   76  H  8  S    0.120212  -0.088720   0.272761   0.190641  -0.005575
   77  H  8  S    0.073438  -0.031959   0.319899   0.315243   0.025634
   78  H  8  X   -0.013811   0.000442  -0.037062  -0.052253  -0.003096
   79  H  8  Y    0.027075  -0.002774  -0.020045   0.013594  -0.003345
   80  H  8  Z    0.007164  -0.012774   0.037892  -0.005341  -0.006053

                     31         32         33         34         35
                    0.9871     1.0387     1.0662     1.0681     1.1326
                     A          A          A          A          A   
    1  O  1  S   -0.011045  -0.013120   0.000000   0.004307   0.004448
    2  O  1  S    0.122285   0.237984   0.000000  -0.377213   0.143299
    3  O  1  X   -0.233374   0.009777   0.000000  -0.088499  -0.035982
    4  O  1  Y    0.074302  -0.019205   0.000000   0.321019  -0.189806
    5  O  1  Z    0.000000   0.000000  -0.006407   0.000000   0.000000
    6  O  1  S   -0.039964  -0.248596   0.000000   0.435712  -0.255317
    7  O  1  X   -0.087128  -0.008300   0.000000  -0.067386  -0.068299
    8  O  1  Y    0.079032   0.357745   0.000000  -0.628424   0.338750
    9  O  1  Z    0.000000   0.000000   0.040461   0.000000   0.000000
   10  O  1 XX    0.031878   0.094438   0.000000  -0.121683   0.075117
   11  O  1 YY    0.009777   0.036404   0.000000  -0.183892   0.068549
   12  O  1 ZZ    0.064716   0.081884   0.000000  -0.141154   0.076790
   13  O  1 XY   -0.029386   0.030376   0.000000   0.015606   0.017074
   14  O  1 XZ    0.000000   0.000000   0.019902   0.000000   0.000000
   15  O  1 YZ    0.000000   0.000000  -0.010162   0.000000   0.000000
   16  C  2  S   -0.053080   0.024614   0.000000  -0.008109   0.027430
   17  C  2  S    0.056363   0.161033   0.000000   0.038468  -1.186592
   18  C  2  X   -0.045031   0.266240   0.000000  -0.257389  -0.428814
   19  C  2  Y   -0.107828   0.009470   0.000000   0.505319  -0.011657
   20  C  2  Z    0.000000   0.000000   0.727087   0.000000   0.000000
   21  C  2  S   -1.362131  -0.454175   0.000000  -0.086806   2.082511
   22  C  2  X    1.206176  -0.555359   0.000000   0.436223   0.957075
   23  C  2  Y    0.899486   0.126420   0.000000  -0.655024   0.272987
   24  C  2  Z    0.000000   0.000000  -1.164707   0.000000   0.000000
   25  C  2 XX   -0.098959   0.008293   0.000000   0.066014  -0.114487
   26  C  2 YY   -0.024016   0.040465   0.000000  -0.209899  -0.093375
   27  C  2 ZZ   -0.018771   0.010055   0.000000   0.123582   0.112540
   28  C  2 XY   -0.058617   0.038348   0.000000   0.014834  -0.071079
   29  C  2 XZ    0.000000   0.000000  -0.246245   0.000000   0.000000
   30  C  2 YZ    0.000000   0.000000   0.071575   0.000000   0.000000
   31  C  3  S   -0.000577   0.021272   0.000000   0.026096  -0.034874
   32  C  3  S   -1.216712   0.084999   0.000000   0.244694  -0.473649
   33  C  3  X   -0.539917   0.139479   0.000000  -0.074111  -0.066902
   34  C  3  Y   -0.149943   0.366283   0.000000  -0.179351   0.033494
   35  C  3  Z    0.000000   0.000000   0.054568   0.000000   0.000000
   36  C  3  S    2.947875  -0.463251   0.000000  -0.187453   0.824141
   37  C  3  X    1.861799  -0.018247   0.000000   0.351054   0.544949
   38  C  3  Y    1.098710  -0.280308   0.000000  -0.159175   0.202449
   39  C  3  Z    0.000000   0.000000   0.009929   0.000000   0.000000
   40  C  3 XX   -0.038255   0.093870   0.000000  -0.024305  -0.067567
   41  C  3 YY   -0.067830  -0.041964   0.000000   0.173733  -0.101052
   42  C  3 ZZ   -0.066919  -0.008589   0.000000  -0.034105   0.045076
   43  C  3 XY    0.007177  -0.065169   0.000000   0.038811  -0.024965
   44  C  3 XZ    0.000000   0.000000   0.093313   0.000000   0.000000
   45  C  3 YZ    0.000000   0.000000   0.052321   0.000000   0.000000
   46  O  4  S   -0.004194  -0.022993   0.000000  -0.013163  -0.002079
   47  O  4  S   -0.114039   0.117295   0.000000   0.031910   0.102234
   48  O  4  X    0.073938  -0.082773   0.000000  -0.077996  -0.048758
   49  O  4  Y   -0.220984  -0.508845   0.000000  -0.261161   0.055946
   50  O  4  Z    0.000000   0.000000   0.258310   0.000000   0.000000
   51  O  4  S    0.115793  -0.155168   0.000000   0.167569  -0.168771
   52  O  4  X   -0.248382  -0.121209   0.000000   0.268505   0.048354
   53  O  4  Y    0.008279   0.441146   0.000000   0.203945  -0.139132
   54  O  4  Z    0.000000   0.000000  -0.229528   0.000000   0.000000
   55  O  4 XX   -0.069878  -0.128023   0.000000  -0.023359   0.027892
   56  O  4 YY   -0.068165  -0.074125   0.000000  -0.020129   0.010935
   57  O  4 ZZ   -0.010877   0.089408   0.000000  -0.017694   0.065655
   58  O  4 XY    0.001365  -0.187670   0.000000  -0.041138  -0.027152
   59  O  4 XZ    0.000000   0.000000  -0.022726   0.000000   0.000000
   60  O  4 YZ    0.000000   0.000000   0.002823   0.000000   0.000000
   61  H  5  S   -0.028330  -0.770549   0.000000  -0.062925  -0.128042
   62  H  5  S    0.136717   0.802956   0.000000   0.294064   0.196308
   63  H  5  X    0.002156   0.153682   0.000000   0.053700   0.010974
   64  H  5  Y    0.031493   0.122662   0.000000   0.052683   0.016065
   65  H  5  Z    0.000000   0.000000   0.011730   0.000000   0.000000
   66  H  6  S   -0.210320   0.083172   0.000000  -0.683064   0.147920
   67  H  6  S   -0.265696  -0.086740   0.000000   1.151710  -0.513085
   68  H  6  X   -0.007213   0.009341   0.000000   0.000446  -0.027673
   69  H  6  Y   -0.026741   0.014016   0.000000  -0.092777   0.037808
   70  H  6  Z    0.000000   0.000000   0.047575   0.000000   0.000000
   71  H  7  S   -0.316229   0.044436  -0.653552   0.241095   0.532289
   72  H  7  S   -0.133383   0.309880   1.294909  -0.532341  -1.225054
   73  H  7  X   -0.042112  -0.009828  -0.073897   0.010327   0.009937
   74  H  7  Y   -0.013236   0.010303   0.024920   0.028101  -0.022533
   75  H  7  Z   -0.027655  -0.003430  -0.054894   0.042448   0.094935
   76  H  8  S   -0.316229   0.044436   0.653552   0.241095   0.532289
   77  H  8  S   -0.133383   0.309880  -1.294909  -0.532341  -1.225054
   78  H  8  X   -0.042112  -0.009828   0.073897   0.010327   0.009937
   79  H  8  Y   -0.013236   0.010303  -0.024920   0.028101  -0.022533
   80  H  8  Z    0.027655   0.003430  -0.054894  -0.042448  -0.094935

                     36         37         38         39         40
                    1.1510     1.2021     1.2114     1.3167     1.3212
                     A          A          A          A          A   
    1  O  1  S    0.011700   0.008245   0.000000   0.000000   0.023781
    2  O  1  S    0.278248   0.104974   0.000000   0.000000   0.455778
    3  O  1  X    0.008796  -0.169712   0.000000   0.000000   0.111587
    4  O  1  Y   -0.544136   0.017962   0.000000   0.000000   0.274617
    5  O  1  Z    0.000000   0.000000   0.230380  -0.919268   0.000000
    6  O  1  S   -0.456960  -0.696281   0.000000   0.000000  -1.129272
    7  O  1  X   -0.005095   0.227580   0.000000   0.000000  -0.267974
    8  O  1  Y    0.812237  -0.147195   0.000000   0.000000  -0.762737
    9  O  1  Z    0.000000   0.000000  -0.174200   1.256740   0.000000
   10  O  1 XX    0.134330   0.024179   0.000000   0.000000   0.085188
   11  O  1 YY    0.195387  -0.007197   0.000000   0.000000   0.080162
   12  O  1 ZZ    0.109876   0.066777   0.000000   0.000000   0.207276
   13  O  1 XY   -0.013863  -0.000686   0.000000   0.000000   0.036271
   14  O  1 XZ    0.000000   0.000000  -0.037092  -0.024279   0.000000
   15  O  1 YZ    0.000000   0.000000   0.021290  -0.047067   0.000000
   16  C  2  S   -0.019132   0.024063   0.000000   0.000000   0.061939
   17  C  2  S    0.531817   0.138628   0.000000   0.000000   0.911641
   18  C  2  X   -0.060762  -0.151993   0.000000   0.000000   0.045169
   19  C  2  Y    0.393609  -0.027515   0.000000   0.000000   0.181915
   20  C  2  Z    0.000000   0.000000   0.235132  -0.015633   0.000000
   21  C  2  S   -1.019566   0.177793   0.000000   0.000000  -3.792801
   22  C  2  X   -0.129024  -0.160810   0.000000   0.000000   0.900502
   23  C  2  Y   -0.517330   0.049363   0.000000   0.000000  -0.198113
   24  C  2  Z    0.000000   0.000000  -0.357026   0.359592   0.000000
   25  C  2 XX    0.012044  -0.038190   0.000000   0.000000  -0.044943
   26  C  2 YY   -0.094815   0.043985   0.000000   0.000000   0.005530
   27  C  2 ZZ    0.123990   0.062974   0.000000   0.000000   0.164738
   28  C  2 XY    0.124073   0.046062   0.000000   0.000000  -0.033721
   29  C  2 XZ    0.000000   0.000000  -0.049521   0.036769   0.000000
   30  C  2 YZ    0.000000   0.000000   0.079446   0.114700   0.000000
   31  C  3  S   -0.032481   0.029040   0.000000   0.000000  -0.000807
   32  C  3  S   -0.054459   0.121742   0.000000   0.000000  -0.527508
   33  C  3  X    0.019641   0.037034   0.000000   0.000000  -0.044503
   34  C  3  Y    0.111741   0.207335   0.000000   0.000000  -0.091091
   35  C  3  Z    0.000000   0.000000   0.098447   0.178402   0.000000
   36  C  3  S   -0.494254   0.459553   0.000000   0.000000   3.870029
   37  C  3  X    0.112303  -0.763447   0.000000   0.000000   0.402205
   38  C  3  Y   -0.231375  -0.725078   0.000000   0.000000   1.301107
   39  C  3  Z    0.000000   0.000000  -0.378037  -0.815746   0.000000
   40  C  3 XX    0.037661   0.162401   0.000000   0.000000  -0.102004
   41  C  3 YY   -0.217544   0.054535   0.000000   0.000000   0.147052
   42  C  3 ZZ    0.055458  -0.048693   0.000000   0.000000   0.023459
   43  C  3 XY    0.011974  -0.088936   0.000000   0.000000  -0.088090
   44  C  3 XZ    0.000000   0.000000  -0.004750  -0.046820   0.000000
   45  C  3 YZ    0.000000   0.000000  -0.026140   0.058556   0.000000
   46  O  4  S   -0.003421  -0.003873   0.000000   0.000000   0.033815
   47  O  4  S   -0.022475  -0.648188   0.000000   0.000000   0.609482
   48  O  4  X    0.060280   0.631296   0.000000   0.000000   0.374486
   49  O  4  Y    0.225531  -0.285419   0.000000   0.000000   0.251131
   50  O  4  Z    0.000000   0.000000  -0.891132  -0.193898   0.000000
   51  O  4  S    0.278033   1.211733   0.000000   0.000000  -1.913102
   52  O  4  X    0.035181  -1.058507   0.000000   0.000000  -1.314830
   53  O  4  Y   -0.262285   0.542237   0.000000   0.000000  -0.421153
   54  O  4  Z    0.000000   0.000000   1.107408   0.356333   0.000000
   55  O  4 XX   -0.022490  -0.153510   0.000000   0.000000   0.268199
   56  O  4 YY    0.079733  -0.182866   0.000000   0.000000   0.018104
   57  O  4 ZZ   -0.020659  -0.257845   0.000000   0.000000   0.324804
   58  O  4 XY   -0.006698   0.104774   0.000000   0.000000   0.020911
   59  O  4 XZ    0.000000   0.000000  -0.053488  -0.023252   0.000000
   60  O  4 YZ    0.000000   0.000000   0.009586  -0.041203   0.000000
   61  H  5  S   -0.001362   0.300058   0.000000   0.000000  -0.293445
   62  H  5  S   -0.070774  -1.089114   0.000000   0.000000  -0.189806
   63  H  5  X   -0.023748  -0.115689   0.000000   0.000000  -0.135874
   64  H  5  Y   -0.049543  -0.095470   0.000000   0.000000   0.015430
   65  H  5  Z    0.000000   0.000000   0.016159   0.024246   0.000000
   66  H  6  S   -0.664271   0.102110   0.000000   0.000000   0.155034
   67  H  6  S    1.181415  -0.070034   0.000000   0.000000   0.980942
   68  H  6  X    0.050324   0.027199   0.000000   0.000000   0.031525
   69  H  6  Y   -0.081445   0.015135   0.000000   0.000000  -0.005693
   70  H  6  Z    0.000000   0.000000   0.030964   0.056750   0.000000
   71  H  7  S   -0.005937   0.205052  -0.164584  -0.051513   0.219028
   72  H  7  S    0.109579  -0.028871   0.436860  -0.076397   0.152948
   73  H  7  X   -0.030665  -0.006684   0.001389   0.026400  -0.043488
   74  H  7  Y    0.042759   0.009960   0.029502   0.049595  -0.022427
   75  H  7  Z    0.017409   0.034064  -0.019988  -0.001678   0.007916
   76  H  8  S   -0.005937   0.205052   0.164584   0.051513   0.219028
   77  H  8  S    0.109579  -0.028871  -0.436860   0.076397   0.152948
   78  H  8  X   -0.030665  -0.006684  -0.001389  -0.026400  -0.043488
   79  H  8  Y    0.042759   0.009960  -0.029502  -0.049595  -0.022427
   80  H  8  Z   -0.017409  -0.034064  -0.019988  -0.001678  -0.007916

                     41         42         43         44         45
                    1.3587     1.5317     1.5486     1.6551     1.6955
                     A          A          A          A          A   
    1  O  1  S    0.007713  -0.022157   0.000000   0.000000   0.033933
    2  O  1  S    0.075844  -0.147881   0.000000   0.000000   0.720066
    3  O  1  X   -0.821578  -0.003493   0.000000   0.000000   0.161904
    4  O  1  Y    0.059732   0.169111   0.000000   0.000000   0.250278
    5  O  1  Z    0.000000   0.000000  -0.112848   0.088357   0.000000
    6  O  1  S   -0.228249   0.974546   0.000000   0.000000  -1.913559
    7  O  1  X    1.327329   0.205868   0.000000   0.000000  -0.511808
    8  O  1  Y   -0.155874   0.082787   0.000000   0.000000  -0.733007
    9  O  1  Z    0.000000   0.000000   0.302526   0.181975   0.000000
   10  O  1 XX    0.008165   0.077343   0.000000   0.000000   0.222699
   11  O  1 YY    0.058691  -0.029983   0.000000   0.000000   0.264524
   12  O  1 ZZ    0.022631  -0.220847   0.000000   0.000000   0.054202
   13  O  1 XY   -0.119442  -0.058306   0.000000   0.000000  -0.044864
   14  O  1 XZ    0.000000   0.000000   0.126446  -0.113783   0.000000
   15  O  1 YZ    0.000000   0.000000  -0.097761  -0.325142   0.000000
   16  C  2  S    0.029659  -0.096984   0.000000   0.000000   0.040096
   17  C  2  S    0.297522  -1.369773   0.000000   0.000000   0.308601
   18  C  2  X    0.042927   0.204484   0.000000   0.000000  -0.015310
   19  C  2  Y   -0.105025   0.089238   0.000000   0.000000   0.103713
   20  C  2  Z    0.000000   0.000000  -0.146945   0.010148   0.000000
   21  C  2  S   -0.213547   4.106698   0.000000   0.000000  -1.433424
   22  C  2  X   -0.336714  -0.865747   0.000000   0.000000   0.372591
   23  C  2  Y   -0.030885  -0.681930   0.000000   0.000000   0.321925
   24  C  2  Z    0.000000   0.000000   0.337788  -0.073940   0.000000
   25  C  2 XX    0.047205  -0.107817   0.000000   0.000000  -0.245976
   26  C  2 YY    0.015480  -0.062741   0.000000   0.000000   0.140196
   27  C  2 ZZ    0.014425  -0.048462   0.000000   0.000000   0.155620
   28  C  2 XY    0.028139   0.100621   0.000000   0.000000   0.233160
   29  C  2 XZ    0.000000   0.000000  -0.201413  -0.131349   0.000000
   30  C  2 YZ    0.000000   0.000000  -0.449795  -0.122450   0.000000
   31  C  3  S    0.000829   0.040173   0.000000   0.000000   0.001144
   32  C  3  S    0.119426   0.350554   0.000000   0.000000  -0.047425
   33  C  3  X    0.226400   0.147836   0.000000   0.000000  -0.047709
   34  C  3  Y   -0.020498   0.070183   0.000000   0.000000  -0.012950
   35  C  3  Z    0.000000   0.000000   0.131779   0.038115   0.000000
   36  C  3  S   -0.381028  -2.760147   0.000000   0.000000   0.638508
   37  C  3  X   -0.959469  -0.994543   0.000000   0.000000   1.566821
   38  C  3  Y   -0.123544   0.084785   0.000000   0.000000  -0.851715
   39  C  3  Z    0.000000   0.000000  -0.453848  -0.181998   0.000000
   40  C  3 XX    0.010918   0.074794   0.000000   0.000000  -0.053473
   41  C  3 YY   -0.034850   0.033646   0.000000   0.000000   0.040631
   42  C  3 ZZ    0.017923  -0.094742   0.000000   0.000000  -0.025360
   43  C  3 XY    0.164829  -0.047776   0.000000   0.000000   0.142672
   44  C  3 XZ    0.000000   0.000000   0.507940  -0.135766   0.000000
   45  C  3 YZ    0.000000   0.000000   0.068663   0.548901   0.000000
   46  O  4  S   -0.008796  -0.035374   0.000000   0.000000  -0.052162
   47  O  4  S    0.070755  -0.417019   0.000000   0.000000  -0.927529
   48  O  4  X   -0.081175   0.288886   0.000000   0.000000  -0.336751
   49  O  4  Y    0.155008   0.349308   0.000000   0.000000   0.059891
   50  O  4  Z    0.000000   0.000000  -0.092493  -0.086242   0.000000
   51  O  4  S   -0.359053   1.264266   0.000000   0.000000   2.573423
   52  O  4  X    0.216437  -0.849832   0.000000   0.000000   0.991138
   53  O  4  Y   -0.230298  -0.908916   0.000000   0.000000  -0.384508
   54  O  4  Z    0.000000   0.000000   0.305216   0.098077   0.000000
   55  O  4 XX   -0.030670  -0.119788   0.000000   0.000000  -0.430803
   56  O  4 YY   -0.047895  -0.178044   0.000000   0.000000  -0.242052
   57  O  4 ZZ    0.114015  -0.048128   0.000000   0.000000  -0.063429
   58  O  4 XY   -0.004792  -0.048236   0.000000   0.000000   0.061015
   59  O  4 XZ    0.000000   0.000000  -0.219372   0.432633   0.000000
   60  O  4 YZ    0.000000   0.000000   0.190351   0.046122   0.000000
   61  H  5  S   -0.173105  -0.558852   0.000000   0.000000  -0.013399
   62  H  5  S    0.268387  -0.587224   0.000000   0.000000   0.112717
   63  H  5  X   -0.007481  -0.071587   0.000000   0.000000   0.075898
   64  H  5  Y    0.028738  -0.054300   0.000000   0.000000  -0.044853
   65  H  5  Z    0.000000   0.000000   0.063428  -0.181786   0.000000
   66  H  6  S    0.101277  -0.363171   0.000000   0.000000   0.151203
   67  H  6  S    0.028743  -0.245131   0.000000   0.000000   0.055647
   68  H  6  X   -0.008139   0.033145   0.000000   0.000000   0.222414
   69  H  6  Y    0.021715   0.015024   0.000000   0.000000   0.040865
   70  H  6  Z    0.000000   0.000000  -0.145668  -0.068577   0.000000
   71  H  7  S    0.124698  -0.359264   0.054959   0.030852   0.124178
   72  H  7  S    0.183813  -0.345577  -0.183447   0.078305   0.020540
   73  H  7  X    0.017353  -0.022535  -0.043692  -0.003176  -0.117871
   74  H  7  Y    0.026145   0.021542  -0.141552  -0.051079  -0.016140
   75  H  7  Z    0.001832   0.014254   0.014714  -0.000029   0.086058
   76  H  8  S    0.124698  -0.359264  -0.054959  -0.030852   0.124178
   77  H  8  S    0.183813  -0.345577   0.183447  -0.078305   0.020540
   78  H  8  X    0.017353  -0.022535   0.043692   0.003176  -0.117871
   79  H  8  Y    0.026145   0.021542   0.141552   0.051079  -0.016140
   80  H  8  Z   -0.001832  -0.014254   0.014714  -0.000029  -0.086058

                     46         47         48         49         50
                    1.7688     1.8617     2.0045     2.0138     2.0215
                     A          A          A          A          A   
    1  O  1  S    0.064972   0.000000   0.024467   0.000000  -0.066692
    2  O  1  S    1.065782   0.000000   0.582667   0.000000  -0.837904
    3  O  1  X   -0.103663   0.000000   0.105595   0.000000   0.146416
    4  O  1  Y    0.135112   0.000000   0.102084   0.000000   0.129427
    5  O  1  Z    0.000000  -0.064832   0.000000  -0.166754   0.000000
    6  O  1  S   -3.615476   0.000000  -1.739347   0.000000   3.546936
    7  O  1  X    0.624981   0.000000  -0.518936   0.000000  -0.097969
    8  O  1  Y   -1.145988   0.000000  -0.621289   0.000000   0.847385
    9  O  1  Z    0.000000   0.007882   0.000000   0.231871   0.000000
   10  O  1 XX    0.067450   0.000000   0.196044   0.000000   0.000364
   11  O  1 YY    0.381153   0.000000   0.213828   0.000000  -0.283138
   12  O  1 ZZ    0.341707   0.000000  -0.077551   0.000000  -0.278065
   13  O  1 XY   -0.080520   0.000000  -0.043635   0.000000  -0.346497
   14  O  1 XZ    0.000000   0.186085   0.000000  -0.470041   0.000000
   15  O  1 YZ    0.000000   0.122320   0.000000   0.329202   0.000000
   16  C  2  S   -0.067856   0.000000   0.048782   0.000000   0.054458
   17  C  2  S   -0.895112   0.000000   0.088983   0.000000   0.229268
   18  C  2  X   -0.046821   0.000000   0.240236   0.000000   0.230747
   19  C  2  Y    0.075133   0.000000   0.113014   0.000000   0.212969
   20  C  2  Z    0.000000   0.074786   0.000000  -0.012500   0.000000
   21  C  2  S    4.193408   0.000000  -1.893470   0.000000  -2.704708
   22  C  2  X   -0.822799   0.000000   0.221657   0.000000   1.102915
   23  C  2  Y   -1.016787   0.000000   0.868720   0.000000  -0.396435
   24  C  2  Z    0.000000  -0.259237   0.000000   0.475557   0.000000
   25  C  2 XX   -0.152788   0.000000   0.463522   0.000000  -0.197732
   26  C  2 YY    0.014758   0.000000  -0.250512   0.000000   0.129640
   27  C  2 ZZ    0.044622   0.000000  -0.186575   0.000000   0.094587
   28  C  2 XY    0.157347   0.000000  -0.135745   0.000000   0.330078
   29  C  2 XZ    0.000000   0.132144   0.000000  -0.115207   0.000000
   30  C  2 YZ    0.000000   0.155766   0.000000  -0.340130   0.000000
   31  C  3  S    0.040949   0.000000  -0.014265   0.000000  -0.021241
   32  C  3  S    0.446604   0.000000  -0.389362   0.000000  -0.713324
   33  C  3  X    0.039977   0.000000  -0.178448   0.000000  -0.036870
   34  C  3  Y    0.022430   0.000000  -0.006825   0.000000  -0.046673
   35  C  3  Z    0.000000  -0.030225   0.000000  -0.040630   0.000000
   36  C  3  S    0.630285   0.000000   2.343779   0.000000   1.140734
   37  C  3  X   -3.339376   0.000000   1.899469   0.000000   0.808410
   38  C  3  Y   -1.893778   0.000000  -0.386493   0.000000   3.457205
   39  C  3  Z    0.000000   0.095718   0.000000  -0.470190   0.000000
   40  C  3 XX   -0.015487   0.000000   0.045896   0.000000   0.421087
   41  C  3 YY    0.087645   0.000000   0.084128   0.000000  -0.330291
   42  C  3 ZZ   -0.021702   0.000000  -0.134707   0.000000  -0.019802
   43  C  3 XY    0.001461   0.000000   0.276280   0.000000   0.177926
   44  C  3 XZ    0.000000   0.200438   0.000000  -0.317990   0.000000
   45  C  3 YZ    0.000000  -0.125782   0.000000  -0.288680   0.000000
   46  O  4  S    0.079268   0.000000  -0.024545   0.000000   0.031633
   47  O  4  S    1.066324   0.000000  -0.068238   0.000000   0.565970
   48  O  4  X    0.084950   0.000000   0.169289   0.000000   0.104135
[...]
                D/DZ     0.375166477   -0.158550484   -0.101865956

          --------------------------------------------------------
          NORMAL COORDINATE ANALYSIS IN THE HARMONIC APPROXIMATION
          --------------------------------------------------------

          ATOMIC WEIGHTS (AMU)

    1     O                15.99491
    2     C                12.00000
    3     C                12.00000
    4     O                15.99491
    5     H                 1.00782
    6     H                 1.00782
    7     H                 1.00782
    8     H                 1.00782

 MODES 2 TO 7 ARE TAKEN AS ROTATIONS AND TRANSLATIONS.

 ANALYZING SYMMETRY OF NORMAL MODES...

     FREQUENCIES IN CM**-1, IR INTENSITIES IN DEBYE**2/AMU-ANGSTROM**2,
     REDUCED MASSES IN AMU.

                          1           2           3           4           5
       FREQUENCY:       107.27 I      1.82        1.08        0.09        0.02  
        SYMMETRY:         A           A           A           A           A   
    REDUCED MASS:      1.07881     3.57853     3.85771     7.70839     7.49570
    IR INTENSITY:      0.03725     0.01230     0.03052     0.00003     0.00000

  1   O            X  0.00000708 -0.07948938  0.08138010  0.01910002  0.12668239
                   Y -0.00000385  0.00609443 -0.01739576  0.11799347 -0.02324567
                   Z  0.04175142 -0.01482567 -0.04107514  0.04601937 -0.00396200
  2   C            X -0.00020810  0.04364486 -0.04832279  0.02538751  0.12701413
                   Y  0.00023934 -0.07277560  0.06653878  0.11392234 -0.02345456
                   Z  0.00550658  0.15038991  0.17457607  0.03453042 -0.00175893
  3   C            X  0.00008639 -0.00657333  0.00472817  0.02280992  0.12687961
                   Y -0.00008856  0.00418513 -0.01507922  0.11789417 -0.02325068
                   Z  0.01823412  0.00150959  0.04864220  0.04614741 -0.00387830
  4   O            X  0.00018599  0.03916813 -0.04301458  0.02510658  0.12700648
                   Y -0.00023707  0.07157895 -0.08610906  0.12137089 -0.02307260
                   Z -0.04879762 -0.11306251  0.04672771  0.05683557 -0.00569488
  5   H            X  0.00022531  0.00353340 -0.00533880  0.02327408  0.12691196
                   Y -0.00030307  0.11730786 -0.13458829  0.12373135 -0.02295200
                   Z -0.08126108 -0.20263952 -0.03517004  0.06370623 -0.00695750
  6   H            X  0.00030559  0.10802521 -0.11706158  0.02875691  0.12718098
                   Y -0.00107821 -0.06003188  0.05277608  0.11458076 -0.02342057
                   Z  0.51590569  0.13877303  0.24175001  0.03693830 -0.00208209
  7   H            X  0.27801703 -0.06933777 -0.07654439  0.03282280  0.12551793
                   Y -0.39228469 -0.11807357  0.04020088  0.11172503 -0.02357040
                   Z -0.30452629  0.21243445  0.18551833  0.02887471 -0.00079009
  8   H            X -0.28016961  0.12510965  0.01412724  0.01625123  0.12843349
                   Y  0.39568744 -0.09861383  0.16867598  0.11244651 -0.02352806
                   Z -0.30118437  0.21195346  0.18560869  0.02892269 -0.00079819

 TRANS. SAYVETZ    X -0.00000664 -0.03143648 -0.09574608  1.38734602  7.61647541
                   Y -0.00000692  0.25863437 -0.90997658  7.07651205 -1.39552192
                   Z -0.00021948  0.14057655  3.35125910  2.77297119 -0.23281856
               TOTAL  0.00021969  0.29604350  3.47392605  7.72600291  7.74676601

   ROT. SAYVETZ    X  0.00215226  1.69720303  6.60541112 -0.03550963  0.01389639
                   Y -0.00667969-10.90049571 -5.53029797  0.91637802 -0.16218666
                   Z  0.02548010-10.76144165 11.35049792 -0.55169189 -0.02879706
               TOTAL  0.02642888 15.41135722 14.24954227  1.07022126  0.16530848

                          6           7           8           9          10
       FREQUENCY:         0.47        3.28      459.91      590.65      634.45  
        SYMMETRY:         A           A           A           A           A   
    REDUCED MASS:      7.61635     6.48519     2.99742     1.45692     4.11593
    IR INTENSITY:      0.00617     0.05610     0.09286     0.76545     1.39258

  1   O            X -0.04974838  0.05102193 -0.07290316 -0.00089252  0.14513605
                   Y -0.04321998  0.00052855 -0.08424710  0.00018788 -0.03224688
                   Z  0.14162597  0.17244257  0.00009274  0.04910658  0.00052276
  2   C            X  0.02086457 -0.02864841 -0.07220911  0.00066563 -0.11678019
                   Y -0.08886488  0.05140068  0.08905093  0.00051736 -0.07214888
                   Z  0.04741670 -0.00731046 -0.00040423  0.00888062  0.00018458
  3   C            X -0.00801992  0.00395678  0.03543102  0.00052214 -0.05575659
                   Y -0.04443475  0.00135922 -0.08395650 -0.00042972 -0.02861892
                   Z  0.10878082  0.02307661  0.00032718 -0.15692118 -0.00074217
  4   O            X  0.01796459 -0.02530479  0.12177755 -0.00006903  0.01385597
                   Y -0.00569950 -0.04307163  0.03627514 -0.00053239  0.10671302
                   Z  0.12330563 -0.13615104  0.00016999 -0.00599409 -0.00044417
  5   H            X -0.00255038 -0.00212889  0.02966709 -0.00060319 -0.14348231
                   Y  0.02069387 -0.07283373  0.15664092  0.00064245  0.31145182
                   Z  0.16232330 -0.10593377 -0.00086978  0.65857906  0.00320828
  6   H            X  0.05830256 -0.07099598 -0.35505681 -0.00163238 -0.06275492
                   Y -0.08141205  0.04346061  0.03232295 -0.00045238 -0.06403104
                   Z  0.02587528 -0.15488837 -0.00176071  0.20079032  0.00095206
  7   H            X  0.03895220 -0.06957588 -0.00511151 -0.22218741 -0.13254968
                   Y -0.08636331  0.18602552  0.25760780 -0.17243147 -0.11563011
                   Z  0.03603877  0.06101989  0.00561582  0.10976273 -0.00332236
  8   H            X -0.01587519  0.03344971 -0.00724528  0.22554035 -0.13016648
                   Y -0.13257340 -0.03745771  0.25411026  0.17666557 -0.11379416
                   Z  0.03606819  0.06013413 -0.00623732  0.10932871  0.00455398

 TRANS. SAYVETZ    X -0.27479698  0.00493788  0.00001494 -0.00000045 -0.00000133
                   Y -2.66390140  0.07277348 -0.00000917  0.00000005  0.00000295
                   Z  6.37426981  0.62891278  0.00000032 -0.00000663  0.00000014
               TOTAL  6.91398580  0.63312846  0.00001753  0.00000665  0.00000324

   ROT. SAYVETZ    X -2.47533074-10.32719041 -0.00078665  0.00069545 -0.00002899
                   Y  3.21852229 -4.81587513  0.00033884 -0.00149941 -0.00030865
                   Z -6.18143723  6.99560049 -0.00004174  0.00000047  0.00107228
               TOTAL  7.39569566 13.37093644  0.00085753  0.00165284  0.00111620

                         11          12          13          14          15
       FREQUENCY:       748.84      932.01     1120.58     1176.40     1345.79  
        SYMMETRY:         A           A           A           A           A   
    REDUCED MASS:      1.60830     3.56392     1.50949     1.81162     1.91574
    IR INTENSITY:      3.45975     0.05772     0.93200     0.33010     6.21741

  1   O            X -0.00012355  0.02117957 -0.01543932  0.00008148  0.00144659
                   Y -0.00008311 -0.09490629 -0.04342977  0.00006499  0.07540514
                   Z -0.06078095  0.00021852  0.00012868 -0.02855356 -0.00021360
  2   C            X -0.00004367  0.14122242 -0.03358442  0.00001456  0.03489071
                   Y  0.00018411  0.06394100  0.13342755 -0.00056165 -0.03210317
                   Z  0.02669412 -0.00010420 -0.00052205 -0.12446553  0.00024168
  3   C            X -0.00008844 -0.04476309 -0.04662364 -0.00031779 -0.09722792
                   Y  0.00048181 -0.07117403 -0.01320276  0.00051712  0.01770648
                   Z  0.13342836  0.00056130  0.00002350  0.15195347 -0.00030482
  4   O            X  0.00026978 -0.10715823  0.05694345  0.00019853  0.06617930
                   Y -0.00044841  0.06407040 -0.03465609 -0.00015680 -0.11288037
                   Z -0.08739056 -0.00046844  0.00018878 -0.02217086  0.00046821
  5   H            X -0.00078058 -0.23435691 -0.06620063 -0.00001075 -0.40201553
                   Y  0.00146974  0.22810244  0.12683245  0.00013340  0.51673863
                   Z  0.68382228 -0.00098523 -0.00076312 -0.01710241 -0.00222846
  6   H            X  0.00154028  0.09265399  0.59034142 -0.00311822 -0.05659662
                   Y  0.00084294  0.06002013  0.25579715 -0.00223468 -0.04376464
                   Z -0.10450566 -0.00012573  0.00123359  0.26633895 -0.00092816
  7   H            X  0.19183060  0.17937080 -0.11736671 -0.41757203  0.06512082
                   Y  0.12195691  0.14405203 -0.28917420 -0.17696051  0.14695868
                   Z -0.06744144  0.00302715 -0.06691494  0.11550500  0.03369708
  8   H            X -0.19333764  0.17835131 -0.11045562  0.41986749  0.06245810
                   Y -0.12376269  0.14334204 -0.28567583  0.18104895  0.14624411
                   Z -0.06684898 -0.00339165  0.06734224  0.11299648 -0.03382988

 TRANS. SAYVETZ    X  0.00000029  0.00000050 -0.00000472 -0.00000004 -0.00000014
                   Y  0.00000031  0.00000633 -0.00000340 -0.00000009 -0.00000110
                   Z -0.00001167  0.00000082 -0.00000008 -0.00000094 -0.00000046
               TOTAL  0.00001168  0.00000640  0.00000582  0.00000094  0.00000120

   ROT. SAYVETZ    X  0.00120341 -0.00014030  0.00010105 -0.00000810 -0.00008338
                   Y -0.00098221  0.00002552 -0.00008310  0.00014381 -0.00003210
                   Z -0.00002758  0.00026919  0.00051111  0.00005408  0.00040750
               TOTAL  0.00155361  0.00030463  0.00052759  0.00015386  0.00041718

                         16          17          18          19          20
       FREQUENCY:      1480.05     1549.17     1606.02     1611.85     2032.05  
        SYMMETRY:         A           A           A           A           A   
    REDUCED MASS:      1.81297     1.39568     1.04583     1.21087     9.92728
    IR INTENSITY:      1.19854     1.73091     0.13451     0.58223    10.18561

  1   O            X -0.02647016 -0.01094436  0.00023740 -0.01227013 -0.00684032
                   Y  0.02112421  0.02273418  0.00017569 -0.00162332 -0.14200568
                   Z -0.00010489 -0.00009596  0.00449486  0.00005982  0.00040692
  2   C            X  0.01486481 -0.11914037  0.00038882 -0.03808245 -0.01070662
                   Y  0.03793275 -0.03114946  0.00107982 -0.06280693 -0.02145649
                   Z -0.00015012  0.00017734 -0.05165373 -0.00098321  0.00004166
  3   C            X  0.17774995  0.08824918 -0.00167849  0.09286026  0.02347977
                   Y -0.01996541 -0.01758885  0.00003668 -0.01057457  0.22896308
                   Z  0.00035003  0.00031530 -0.02454434 -0.00033919 -0.00064713
  4   O            X -0.05865620 -0.02886451  0.00046843 -0.02579618  0.00258465
                   Y -0.01902192 -0.00333915 -0.00003747  0.00238749 -0.02131883
                   Z -0.00004508 -0.00006003  0.00163164 -0.00000832  0.00006959
  5   H            X -0.32210625 -0.11316846  0.00152769 -0.08274863 -0.09021306
                   Y  0.34217904  0.11524316 -0.00152060  0.08147530  0.10671491
                   Z -0.00162361 -0.00061808 -0.00093583 -0.00033554 -0.00048794
  6   H            X -0.27179184  0.24491744 -0.00612925  0.52714100 -0.05116754
                   Y -0.03285652  0.03334457 -0.00251599  0.05653890 -0.02983077
                   Z  0.00170449 -0.00060119  0.70702777  0.01007165  0.00032175
  7   H            X -0.17467897  0.43279413  0.07904792 -0.24461441  0.02863642
                   Y -0.27816951  0.06250404  0.46131829  0.36859858  0.02267503
                   Z  0.02768823 -0.33296680  0.04871570  0.26053056 -0.02094672
  8   H            X -0.17383333  0.43507083 -0.07029239 -0.24786549  0.02819752
                   Y -0.27845427  0.06141285 -0.47276926  0.35499986  0.02177507
                   Z -0.02776923  0.33079604  0.05523774 -0.25533827  0.02075983

 TRANS. SAYVETZ    X  0.00000397  0.00000231 -0.00000003  0.00000263  0.00000032
                   Y -0.00000228 -0.00000103  0.00000003 -0.00000048  0.00000194
                   Z  0.00000014  0.00000013  0.00000014  0.00000014  0.00000020
               TOTAL  0.00000458  0.00000254  0.00000015  0.00000268  0.00000198

   ROT. SAYVETZ    X  0.00004772 -0.00007051 -0.00018326 -0.00004138 -0.00002591
                   Y -0.00004797  0.00014733  0.00009159 -0.00011923  0.00000623
                   Z  0.00013303  0.00012502  0.00007490 -0.00002585  0.00000744
               TOTAL  0.00014925  0.00020569  0.00021813  0.00012882  0.00002766

                         21          22          23          24
       FREQUENCY:      3216.24     3286.99     3321.00     4126.25  
        SYMMETRY:         A           A           A           A   
    REDUCED MASS:      1.03702     1.10180     1.10584     1.06508
    IR INTENSITY:      0.06460     0.17665     0.29269     2.51257

  1   O            X  0.00012693  0.00000014 -0.00014822  0.00037008
                   Y  0.00046265 -0.00000749  0.00053850 -0.00066803
                   Z  0.00000022  0.00017725 -0.00000481  0.00000244
  2   C            X  0.04842974 -0.00018117  0.03990945  0.00045197
                   Y  0.01429602 -0.00034978 -0.08039903  0.00031700
                   Z -0.00043769 -0.08808406  0.00028259 -0.00000261
  3   C            X -0.00258822  0.00002709  0.00207193 -0.00162951
                   Y -0.00210441  0.00002071 -0.00117729 -0.00089116
                   Z -0.00000508 -0.00077460  0.00000633 -0.00000008
  4   O            X  0.00018470  0.00000092 -0.00044317 -0.04835401
                   Y  0.00012556  0.00000170  0.00036752 -0.03528737
                   Z -0.00000025 -0.00012355 -0.00000023  0.00002117
  5   H            X  0.00033368 -0.00001360 -0.00058398  0.77562675
                   Y -0.00181219 -0.00000126  0.00118497  0.57767924
                   Z -0.00000555 -0.00111228  0.00001046 -0.00037170
  6   H            X  0.09547696 -0.00146371 -0.16614530  0.00104214
                   Y -0.45156976  0.00720433  0.82298197 -0.00031253
                   Z -0.00139912 -0.01286293  0.00241156  0.00000024
  7   H            X -0.32326219  0.36921412 -0.16498935 -0.00055009
                   Y  0.15013541 -0.16850825  0.06820347  0.00005335
                   Z -0.49414378  0.53430944 -0.25789275  0.00001237
  8   H            X -0.32331930 -0.36591909 -0.15876076 -0.00055914
                   Y  0.14874725  0.16531512  0.06456499  0.00005304
                   Z  0.50082092  0.53683890  0.25211065  0.00001618

 TRANS. SAYVETZ    X  0.00000197 -0.00000001 -0.00000002 -0.00000066
                   Y -0.00000056  0.00000000 -0.00000062 -0.00000153
                   Z  0.00000004  0.00000046  0.00000000 -0.00000010
               TOTAL  0.00000205  0.00000046  0.00000062  0.00000167

   ROT. SAYVETZ    X -0.00003040 -0.00001379 -0.00000407 -0.00000690
                   Y  0.00000568  0.00003940  0.00000445  0.00000825
                   Z  0.00000014 -0.00002073 -0.00003982  0.00000135
               TOTAL  0.00003092  0.00004661  0.00004027  0.00001083

 REFERENCE ON SAYVETZ CONDITIONS - A. SAYVETZ, J.CHEM.PHYS., 7, 383-389(1939).

 NOTE - THE MODES J,K ARE ORTHONORMALIZED ACCORDING TO
 SUM ON I   M(I) * (X(I,J)*X(I,K) + Y(I,J)*Y(I,K) + Z(I,J)*Z(I,K)) = DELTA(J,K)

  MODE FREQ(CM**-1)  SYMMETRY  RED. MASS  IR INTENS.
     1     107.274    A        1.078814    0.037246
     2       1.815    A        3.578533    0.012304
     3       1.082    A        3.857708    0.030517
     4       0.094    A        7.708387    0.000031
     5       0.018    A        7.495702    0.000000
     6       0.471    A        7.616348    0.006166
     7       3.283    A        6.485189    0.056098
     8     459.910    A        2.997422    0.092862
     9     590.649    A        1.456921    0.765452
    10     634.450    A        4.115927    1.392583
    11     748.841    A        1.608301    3.459747
    12     932.012    A        3.563923    0.057715
    13    1120.575    A        1.509493    0.932000
    14    1176.402    A        1.811623    0.330099
    15    1345.791    A        1.915744    6.217412
    16    1480.050    A        1.812969    1.198536
    17    1549.170    A        1.395679    1.730913
    18    1606.023    A        1.045834    0.134515
    19    1611.849    A        1.210868    0.582230
    20    2032.048    A        9.927277   10.185613
    21    3216.239    A        1.037024    0.064598
    22    3286.990    A        1.101803    0.176654
    23    3321.003    A        1.105840    0.292688
    24    4126.248    A        1.065076    2.512574

     -------------------------------
     THERMOCHEMISTRY AT T=  298.15 K
     -------------------------------

 USING IDEAL GAS, RIGID ROTOR, HARMONIC NORMAL MODE APPROXIMATIONS.
 P=  1.01325E+05 PASCAL.
 ALL FREQUENCIES ARE SCALED BY   1.00000
 THE MOMENTS OF INERTIA ARE (IN AMU*BOHR**2)
    153.46656   189.64590   332.09859
 THE ROTATIONAL SYMMETRY NUMBER IS  1.0
 THE ROTATIONAL CONSTANTS ARE (IN GHZ)
     11.74906     9.50766     5.42938
   1 IMAGINARY FREQUENCY VIBRATION(S) IS(ARE) EXCLUDED
     FROM THE FOLLOWING THERMOCHEMICAL ANALYSIS.
 THE HARMONIC ZERO POINT ENERGY IS (SCALED BY   1.000)
        0.066610 HARTREE/MOLECULE    14619.125246 CM**-1/MOLECULE 
       41.798218 KCAL/MOL              174.883746 KJ/MOL

               Q               LN Q
 ELEC.     1.00000E+00       0.000000
 TRANS.    1.82772E+07      16.721165
 ROT.      3.51928E+04      10.468596
 VIB.      1.31360E+00       0.272771
 TOT.      8.44941E+11      27.462533

              E         H         G         CV        CP        S
           KJ/MOL    KJ/MOL    KJ/MOL   J/MOL-K   J/MOL-K   J/MOL-K
 ELEC.      0.000     0.000     0.000     0.000     0.000     0.000
 TRANS.     3.718     6.197   -41.451    12.472    20.786   159.813
 ROT.       3.718     3.718   -25.951    12.472    12.472    99.512
 VIB.     176.910   176.910   174.208    22.650    22.650     9.064
 TOTAL    184.347   186.826   106.806    47.593    55.907   268.388
 VIB. THERMAL CORRECTION E(T)-E(0) = H(T)-H(0) =  2026.181 J/MOL

              E         H         G         CV        CP        S
         KCAL/MOL  KCAL/MOL  KCAL/MOL CAL/MOL-K CAL/MOL-K CAL/MOL-K
 ELEC.      0.000     0.000     0.000     0.000     0.000     0.000
 TRANS.     0.889     1.481    -9.907     2.981     4.968    38.196
 ROT.       0.889     0.889    -6.202     2.981     2.981    23.784
 VIB.      42.282    42.282    41.637     5.413     5.413     2.166
 TOTAL     44.060    44.652    25.527    11.375    13.362    64.146
 VIB. THERMAL CORRECTION E(T)-E(0) = H(T)-H(0) =   484.269 CAL/MOL
 ......END OF NORMAL COORDINATE ANALYSIS......
 CPU     0: STEP CPU TIME=     0.00 TOTAL CPU TIME=       14.2 (    0.2 MIN)
 TOTAL WALL CLOCK TIME=       14.2 SECONDS, CPU UTILIZATION IS 100.00%
                   994627  WORDS OF DYNAMIC MEMORY USED
 EXECUTION OF GAMESS TERMINATED NORMALLY Thu Dec 14 16:06:25 2017
 DDI: 263624 bytes (0.3 MB / 0 MWords) used by master data server.

 ----------------------------------------
 CPU timing information for all processes
 ========================================
 0: 11.294472 + 0.873605 = 12.168077
 1: 10.514467 + 0.842405 = 11.356872
 2: 10.639268 + 0.967206 = 11.606474
 3: 10.467667 + 0.655204 = 11.122871
 4: 4.867231 + 0.327602 = 5.194833
 5: 0.000000 + 0.015600 = 0.015600
 6: 0.000000 + 0.000000 = 0.000000
 7: 0.000000 + 0.000000 = 0.000000
 ----------------------------------------
           Disk usage (in bytes)       
 ========================================
 ----------------------------------------
            Local date and time          
 ========================================
14.12.2017 - 16:06:31.70                          
