          ******************************************************
          *         GAMESS VERSION =  1 MAY 2013 (R1)          *
          *             FROM IOWA STATE UNIVERSITY             *
          * M.W.SCHMIDT, K.K.BALDRIDGE, J.A.BOATZ, S.T.ELBERT, *
          *   M.S.GORDON, J.H.JENSEN, S.KOSEKI, N.MATSUNAGA,   *
          *          K.A.NGUYEN, S.J.SU, T.L.WINDUS,           *
          *       TOGETHER WITH M.DUPUIS, J.A.MONTGOMERY       *
          *         J.COMPUT.CHEM.  14, 1347-1363(1993)        *
          *************** 64 BIT WINDOWS VERSION ***************

  SINCE 1993, STUDENTS AND POSTDOCS WORKING AT IOWA STATE UNIVERSITY
  AND ALSO IN THEIR VARIOUS JOBS AFTER LEAVING ISU HAVE MADE IMPORTANT
  CONTRIBUTIONS TO THE CODE:
     IVANA ADAMOVIC, CHRISTINE AIKENS, YURI ALEXEEV, POOJA ARORA,
     ANDREY ASADCHEV, ROB BELL, PRADIPTA BANDYOPADHYAY, JONATHAN BENTZ,
     BRETT BODE, GALINA CHABAN, WEI CHEN, CHEOL HO CHOI, PAUL DAY,
     ALBERT DEFUSCO, TIM DUDLEY, DMITRI FEDOROV, GRAHAM FLETCHER,
     MARK FREITAG, KURT GLAESEMANN, DAN KEMP, GRANT MERRILL,
     NORIYUKI MINEZAWA, JONATHAN MULLIN, TAKESHI NAGATA,
     SEAN NEDD, HEATHER NETZLOFF, BOSILJKA NJEGIC, RYAN OLSON, MIKE PAK,
     JIM SHOEMAKER, LYUDMILA SLIPCHENKO, SAROM SOK, JIE SONG,
     TETSUYA TAKETSUGU, SIMON WEBB, SOOHAENG YOO, FEDERICO ZAHARIEV

  ADDITIONAL CODE HAS BEEN PROVIDED BY COLLABORATORS IN OTHER GROUPS:
     IOWA STATE UNIVERSITY:
          JOE IVANIC, LAIMUTIS BYTAUTAS, KLAUS RUEDENBERG
     UNIVERSITY OF TOKYO: KIMIHIKO HIRAO, TAKAHITO NAKAJIMA,
          TAKAO TSUNEDA, MUNEAKI KAMIYA, SUSUMU YANAGISAWA,
          KIYOSHI YAGI, MAHITO CHIBA, SEIKEN TOKURA, NAOAKI KAWAKAMI
     UNIVERSITY OF AARHUS: FRANK JENSEN
     UNIVERSITY OF IOWA: VISVALDAS KAIRYS, HUI LI
     NATIONAL INST. OF STANDARDS AND TECHNOLOGY: WALT STEVENS, DAVID GARMER
     UNIVERSITY OF PISA: BENEDETTA MENNUCCI, JACOPO TOMASI
     UNIVERSITY OF MEMPHIS: HENRY KURTZ, PRAKASHAN KORAMBATH
     UNIVERSITY OF ALBERTA: TOBY ZENG, MARIUSZ KLOBUKOWSKI
     UNIVERSITY OF NEW ENGLAND: MARK SPACKMAN
     MIE UNIVERSITY: HIROAKI UMEDA
     MICHIGAN STATE UNIVERSITY:
          KAROL KOWALSKI, MARTA WLOCH, JEFFREY GOUR, JESSE LUTZ,
          WEI LI, PIOTR PIECUCH
     UNIVERSITY OF SILESIA: MONIKA MUSIAL, STANISLAW KUCHARSKI
     FACULTES UNIVERSITAIRES NOTRE-DAME DE LA PAIX:
          OLIVIER QUINET, BENOIT CHAMPAGNE
     UNIVERSITY OF CALIFORNIA - SANTA BARBARA: BERNARD KIRTMAN
     INSTITUTE FOR MOLECULAR SCIENCE:
          KAZUYA ISHIMURA, MICHIO KATOUDA, AND SHIGERU NAGASE
     UNIVERSITY OF NOTRE DAME: DAN CHIPMAN
     KYUSHU UNIVERSITY:
          HARUYUKI NAKANO,
          FENG LONG GU, JACEK KORCHOWIEC, MARCIN MAKOWSKI, AND YURIKO AOKI,
          HIROTOSHI MORI AND EISAKU MIYOSHI
     PENNSYLVANIA STATE UNIVERSITY:
          TZVETELIN IORDANOV, CHET SWALINA, JONATHAN SKONE,
          SHARON HAMMES-SCHIFFER
     WASEDA UNIVERSITY:
          MASATO KOBAYASHI, TOMOKO AKAMA, TSUGUKI TOUMA,
          TAKESHI YOSHIKAWA, YASUHIRO IKABATA, HIROMI NAKAI
     NANJING UNIVERSITY: SHUHUA LI
     UNIVERSITY OF NEBRASKA:
          PEIFENG SU, DEJUN SI, NANDUN THELLAMUREGE, YALI WANG, HUI LI
     UNIVERSITY OF ZURICH:
          ROBERTO PEVERATI, KIM BALDRIDGE
     N. COPERNICUS UNIVERSITY AND JACKSON STATE UNIVERSITY:
          MARIA BARYSZ


 PARALLEL VERSION RUNNING ON     4 PROCESSORS IN     4 NODES.

 EXECUTION OF GAMESS BEGUN Thu Dec 14 17:43:29 2017

            ECHO OF THE FIRST FEW INPUT CARDS -
 INPUT CARD> $CONTRL RUNTYP=sadpoint UNITS=ANGS $END                                        
 INPUT CARD> $BASIS  GBASIS=N31 NGAUSS=6 ndfunc=1 npfunc=1 $END                             
 INPUT CARD> $statpt nstep=100 hssend=.t. ifolow=1 hess=read $end                           
 INPUT CARD> $force NVIB=2 RDHESS=.f. $end                                                  
 INPUT CARD> $scf DIIS=.t. SOSCF=.f. $end                                                   
 INPUT CARD> $DATA                                                                          
 INPUT CARD>  AcOH_TS opt                                                                   
 INPUT CARD> C1                                                                             
 INPUT CARD> O		8        0.168490826     -1.036086980     -0.475790024                      
 INPUT CARD> C		6        1.528785555      0.867917237      0.000329417                      
 INPUT CARD> C		6        0.268509325      0.047351157      0.001234578                      
 INPUT CARD> O		8       -0.749028366      0.658587800      0.597906450                      
 INPUT CARD> H		1       -1.503137051      0.084828396      0.559241875                      
 INPUT CARD> H		1        1.388888180      1.820458824     -0.489033867                      
 INPUT CARD> H		1        1.842292142      1.020548749      1.025953806                      
 INPUT CARD> H		1        2.306568517      0.304857076     -0.501294273                      
 INPUT CARD> $END                                                                           
 INPUT CARD> $HESS                                                                          
 INPUT CARD>ENERGY IS     -227.8221715396 E(NUC) IS      122.5184125953                     
 INPUT CARD> 1  1 1.26112957E-01 8.61856010E-02 1.51960384E-02 8.01667958E-03-3.98833975E-02
 INPUT CARD> 1  2-1.21088894E-02-1.58515694E-01-9.97319081E-02-2.99600967E-02 1.92769518E-02
 INPUT CARD> 1  3 6.31576271E-02 3.61842702E-02 9.46555839E-03-2.31071236E-03-6.12707712E-03
 INPUT CARD> 1  4-5.88981996E-03-5.29997829E-03-1.39366357E-03-3.22457645E-03-3.76232925E-03
 INPUT CARD> 1  5-9.54386422E-04 4.75771802E-03 1.64465070E-03-8.36345280E-04               
 INPUT CARD> 2  1 8.61856010E-02 8.66259631E-01 3.81875865E-01-9.78272228E-03-2.77860801E-02
 INPUT CARD> 2  2-2.67642761E-02-1.14581971E-01-7.69863008E-01-2.96755602E-01 4.98824542E-02
 INPUT CARD> 2  3-5.88045066E-02-6.18794950E-02-3.00325222E-03-5.96930296E-03 1.36117541E-03
 INPUT CARD> 2  4-2.34305478E-03-6.19069568E-04-3.34134470E-04-5.86409087E-03-4.33929810E-03
 INPUT CARD> 2  5 1.48265494E-03-4.94412509E-04 1.12196522E-03 1.01468896E-03               
 INPUT CARD> 3  1 1.51960384E-02 3.81875865E-01 2.20255687E-01 2.71124403E-03-1.75730834E-02
 INPUT CARD> 3  2 2.31769189E-02-3.72688063E-02-3.01292856E-01-2.32784365E-01 2.96475743E-02
 INPUT CARD> 3  3-6.59305958E-02-5.52304764E-03-6.46788312E-03 1.15093163E-03-4.33240546E-03
 INPUT CARD> 3  4-5.26737272E-03-1.90595574E-03-9.85690401E-04 3.33927326E-03 3.31511945E-03
 INPUT CARD> 3  5 7.02986878E-05-1.88970051E-03 3.60440319E-04 1.22526511E-04               
 INPUT CARD> 4  1 8.01667958E-03-9.78272228E-03 2.71124403E-03 6.14255559E-01-5.25743350E-02
 INPUT CARD> 4  2-2.74670948E-02-2.14702212E-01-6.18311118E-02 2.92995474E-04-4.04944627E-02
 INPUT CARD> 4  3-1.91827184E-02 7.46874468E-03-1.68996025E-03 2.91628382E-03 3.37317047E-03
 INPUT CARD> 4  4-6.75146026E-02 4.11945728E-02-1.85048127E-02-8.13161501E-02-1.57851146E-02
 INPUT CARD> 4  5-7.27006550E-02-2.16554360E-01 1.15045711E-01 1.04826430E-01               
 INPUT CARD> 5  1-3.98833975E-02-2.77860801E-02-1.75730834E-02-5.25743350E-02 6.29424336E-01
 INPUT CARD> 5  2 2.61584727E-02-6.42757950E-02-1.37291127E-01 8.18865655E-03 1.78378806E-02
 INPUT CARD> 5  3 1.50502807E-02-5.36723986E-03 4.79528410E-03-9.25842360E-05-3.80146692E-03
 INPUT CARD> 5  4 4.25321769E-02-2.80025790E-01 1.16972882E-01-1.39438095E-02-6.13350013E-02
 INPUT CARD> 5  5-5.33815387E-02 1.05511284E-01-1.37944548E-01-7.11965482E-02               
 INPUT CARD> 6  1-1.21088894E-02-2.67642761E-02 2.31769189E-02-2.74670948E-02 2.61584727E-02
 INPUT CARD> 6  2 6.30202369E-01-9.02332206E-04 7.44593004E-03-1.10118092E-01 2.56901351E-02
 INPUT CARD> 6  3 5.93501477E-03 9.96715856E-03 4.29869869E-03-3.22872454E-03 1.75986860E-03
 INPUT CARD> 6  4-1.80122898E-02 1.18752614E-01-1.12114421E-01-7.16336934E-02-5.41888351E-02
 INPUT CARD> 6  5-3.17033943E-01 1.00135095E-01-7.41100797E-02-1.25840193E-01               
 INPUT CARD> 7  1-1.58515694E-01-1.14581971E-01-3.72688063E-02-2.14702212E-01-6.42757950E-02
    1000000 WORDS OF MEMORY AVAILABLE

     BASIS OPTIONS
     -------------
     GBASIS=N31          IGAUSS=       6      POLAR=POPN31  
     NDFUNC=       1     NFFUNC=       0     DIFFSP=       F
     NPFUNC=       1      DIFFS=       F     BASNAM=        


     RUN TITLE
     ---------
   AcOH_TS opt                                                                   

 THE POINT GROUP OF THE MOLECULE IS C1      
 THE ORDER OF THE PRINCIPAL AXIS IS     0

 ATOM      ATOMIC                      COORDINATES (BOHR)
           CHARGE         X                   Y                   Z
 O           8.0     0.3184014926       -1.9579204916       -0.8991127731
 C           6.0     2.8889857929        1.6401257580        0.0006225079
 C           6.0     0.5074090494        0.0894807119        0.0023330141
 O           8.0    -1.4154583688        1.2445504809        1.1298793568
 H           1.0    -2.8405171484        0.1603024244        1.0568139046
 H           1.0     2.6246180878        3.4401683493       -0.9241400073
 H           1.0     3.4814273377        1.9285574927        1.9387715694
 H           1.0     4.3587824690        0.5760963391       -0.9473088152

          INTERNUCLEAR DISTANCES (ANGS.)
          ------------------------------

                1 O          2 C          3 C          4 O          5 H     

   1 O       0.0000000    2.3879538 *  1.1880212 *  2.2060345 *  2.2632017 *
   2 C       2.3879538 *  0.0000000    1.5038702 *  2.3641813 *  3.1809065  
   3 C       1.1880212 *  1.5038702 *  0.0000000    1.3285370 *  1.8578233 *
   4 O       2.2060345 *  2.3641813 *  1.3285370 *  0.0000000    0.9483537 *
   5 H       2.2632017 *  3.1809065    1.8578233 *  0.9483537 *  0.0000000  
   6 H       3.1063482    1.0799922 *  2.1539551 *  2.6649710 *  3.5320115  
   7 H       3.0473917    1.0832766 *  2.1151727 *  2.6512605 *  3.5050377  
   8 H       2.5239171 *  1.0833325 *  2.1148356 *  3.2665027    3.9606825  

                6 H          7 H          8 H     

   1 O       3.1063482    3.0473917    2.5239171 *
   2 C       1.0799922 *  1.0832766 *  1.0833325 *
   3 C       2.1539551 *  2.1151727 *  2.1148356 *
   4 O       2.6649710 *  2.6512605 *  3.2665027  
   5 H       3.5320115    3.5050377    3.9606825  
   6 H       0.0000000    1.7721791 *  1.7718172 *
   7 H       1.7721791 *  0.0000000    1.7493581 *
   8 H       1.7718172 *  1.7493581 *  0.0000000  

  * ... LESS THAN  3.000


     ATOMIC BASIS SET
     ----------------
 THE CONTRACTED PRIMITIVE FUNCTIONS HAVE BEEN UNNORMALIZED
 THE CONTRACTED BASIS FUNCTIONS ARE NOW NORMALIZED TO UNITY

  SHELL TYPE  PRIMITIVE        EXPONENT          CONTRACTION COEFFICIENT(S)

 O         

      1   S       1          5484.6716600    0.001831074430
      1   S       2           825.2349460    0.013950172200
      1   S       3           188.0469580    0.068445078098
      1   S       4            52.9645000    0.232714335992
      1   S       5            16.8975704    0.470192897984
      1   S       6             5.7996353    0.358520852987

      2   L       7            15.5396162   -0.110777549525    0.070874268231
      2   L       8             3.5999336   -0.148026262701    0.339752839147
      2   L       9             1.0137618    1.130767015354    0.727158577316

      3   L      10             0.2700058    1.000000000000    1.000000000000

      4   D      11             0.8000000    1.000000000000

 C         

      5   S      12          3047.5248800    0.001834737132
      5   S      13           457.3695180    0.014037322813
      5   S      14           103.9486850    0.068842622264
      5   S      15            29.2101553    0.232184443216
      5   S      16             9.2866630    0.467941348435
      5   S      17             3.1639270    0.362311985337

      6   L      18             7.8682723   -0.119332419775    0.068999066591
      6   L      19             1.8812885   -0.160854151696    0.316423960957
      6   L      20             0.5442493    1.143456437840    0.744308290898

      7   L      21             0.1687145    1.000000000000    1.000000000000

      8   D      22             0.8000000    1.000000000000

 C         

      9   S      23          3047.5248800    0.001834737132
      9   S      24           457.3695180    0.014037322813
      9   S      25           103.9486850    0.068842622264
      9   S      26            29.2101553    0.232184443216
      9   S      27             9.2866630    0.467941348435
      9   S      28             3.1639270    0.362311985337

     10   L      29             7.8682723   -0.119332419775    0.068999066591
     10   L      30             1.8812885   -0.160854151696    0.316423960957
     10   L      31             0.5442493    1.143456437840    0.744308290898

     11   L      32             0.1687145    1.000000000000    1.000000000000

     12   D      33             0.8000000    1.000000000000

 O         

     13   S      34          5484.6716600    0.001831074430
     13   S      35           825.2349460    0.013950172200
     13   S      36           188.0469580    0.068445078098
     13   S      37            52.9645000    0.232714335992
     13   S      38            16.8975704    0.470192897984
     13   S      39             5.7996353    0.358520852987

     14   L      40            15.5396162   -0.110777549525    0.070874268231
     14   L      41             3.5999336   -0.148026262701    0.339752839147
     14   L      42             1.0137618    1.130767015354    0.727158577316

     15   L      43             0.2700058    1.000000000000    1.000000000000

     16   D      44             0.8000000    1.000000000000

 H         

     17   S      45            18.7311370    0.033494604338
     17   S      46             2.8253944    0.234726953484
     17   S      47             0.6401217    0.813757326146

     18   S      48             0.1612778    1.000000000000

     19   P      49             1.1000000    1.000000000000

 H         

     20   S      50            18.7311370    0.033494604338
     20   S      51             2.8253944    0.234726953484
     20   S      52             0.6401217    0.813757326146

     21   S      53             0.1612778    1.000000000000

     22   P      54             1.1000000    1.000000000000

 H         

     23   S      55            18.7311370    0.033494604338
     23   S      56             2.8253944    0.234726953484
     23   S      57             0.6401217    0.813757326146

     24   S      58             0.1612778    1.000000000000

     25   P      59             1.1000000    1.000000000000

 H         

     26   S      60            18.7311370    0.033494604338
     26   S      61             2.8253944    0.234726953484
     26   S      62             0.6401217    0.813757326146

     27   S      63             0.1612778    1.000000000000

     28   P      64             1.1000000    1.000000000000

 TOTAL NUMBER OF BASIS SET SHELLS             =   28
 NUMBER OF CARTESIAN GAUSSIAN BASIS FUNCTIONS =   80
 NUMBER OF ELECTRONS                          =   32
 CHARGE OF MOLECULE                           =    0
 SPIN MULTIPLICITY                            =    1
 NUMBER OF OCCUPIED ORBITALS (ALPHA)          =   16
 NUMBER OF OCCUPIED ORBITALS (BETA )          =   16
 TOTAL NUMBER OF ATOMS                        =    8
 THE NUCLEAR REPULSION ENERGY IS      122.4649110543

     $NEO OPTIONS
     ------------
     NUNIQN=       0     BASNUC=DZSNB        NEOSCF=NONE    
     NEOCI =NONE         NUMULT=       2     NUCST =       1
     NAUXNB=       0     VNUCEX=       F     NUCOPT=       F
     NTAUXB=       0     NEOHSS=       F     HSSINI=READH   
     HSSUPD=POWELLUP     DIRNUC=       F     SYMNUC=       F
     QMTOLN= 0.0E+00     USRDEX=       F
     POSNEO=       F     POSPRP=       F
     NEONCI=       F     LOCORB=       0

     $CONTRL OPTIONS
     ---------------
 SCFTYP=RHF          RUNTYP=SADPOINT     EXETYP=RUN     
 MPLEVL=       0     CITYP =NONE         CCTYP =NONE         VBTYP =NONE    
 DFTTYP=NONE         TDDFT =NONE    
 MULT  =       1     ICHARG=       0     NZVAR =       0     COORD =UNIQUE  
 PP    =NONE         RELWFN=NONE         LOCAL =NONE         NUMGRD=       F
 ISPHER=      -1     NOSYM =       0     MAXIT =      30     UNITS =ANGS    
 PLTORB=       F     MOLPLT=       F     AIMPAC=       F     FRIEND=        
 NPRINT=       7     IREST =       0     GEOM  =INPUT   
 NORMF =       0     NORMP =       0     ITOL  =      20     ICUT  =       9
 INTTYP=BEST         GRDTYP=BEST         QMTTOL= 1.0E-06

     $SYSTEM OPTIONS
     ---------------
  REPLICATED MEMORY=     1000000 WORDS (ON EVERY NODE).
 DISTRIBUTED MEMDDI=           0 MILLION WORDS IN AGGREGATE,
 MEMDDI DISTRIBUTED OVER   4 PROCESSORS IS           0 WORDS/PROCESSOR.
 TOTAL MEMORY REQUESTED ON EACH PROCESSOR=     1000000 WORDS.
 TIMLIM=      525600.00 MINUTES, OR     365.0 DAYS.
 PARALL= T  BALTYP=  DLB     KDIAG=    0  COREFL= F
 MXSEQ2=     300 MXSEQ3=     150

          ----------------
          PROPERTIES INPUT
          ----------------

     MOMENTS            FIELD           POTENTIAL          DENSITY
 IEMOM =       1   IEFLD =       0   IEPOT =       0   IEDEN =       0
 WHERE =COMASS     WHERE =NUCLEI     WHERE =NUCLEI     WHERE =NUCLEI  
 OUTPUT=BOTH       OUTPUT=BOTH       OUTPUT=BOTH       OUTPUT=BOTH    
 IEMINT=       0   IEFINT=       0                     IEDINT=       0
                                                       MORB  =       0
          EXTRAPOLATION IN EFFECT
          DIIS IN EFFECT
 ORBITAL PRINTING OPTION: NPREO=     1    80     2     1

     -------------------------------
     INTEGRAL TRANSFORMATION OPTIONS
     -------------------------------
     NWORD  =            0
     CUTOFF = 1.0E-09     MPTRAN =       0
     DIRTRF =       F     AOINTS =DUP     

          ----------------------
          INTEGRAL INPUT OPTIONS
          ----------------------
 NOPK  =       1 NORDER=       0 SCHWRZ=       T

     ------------------------------------------
     THE POINT GROUP IS C1 , NAXIS= 0, ORDER= 1
     ------------------------------------------

     DIMENSIONS OF THE SYMMETRY SUBSPACES ARE
 A   =   80

 ..... DONE SETTING UP THE RUN .....
 CPU     0: STEP CPU TIME=     0.02 TOTAL CPU TIME=        0.0 (    0.0 MIN)
 TOTAL WALL CLOCK TIME=        0.0 SECONDS, CPU UTILIZATION IS 100.00%


          -----------------------------
          STATIONARY POINT LOCATION RUN
          -----------------------------

 OBTAINING INITIAL HESSIAN, HESS=READ    

 $HESS GROUP READ FROM CARDS
 ENERGY IS     -227.8221715396 E(NUC) IS      122.5184125953                     

          PARAMETERS CONTROLLING GEOMETRY SEARCH ARE
          METHOD =QA                  UPHESS =POWELL  
          NNEG   =         1          NFRZ   =         0
          NSTEP  =       100          IFOLOW =         1
          HESS   =READ                RESTAR =         F
          IHREP  =         0          HSSEND =         T
          NPRT   =         0          NPUN   =         0
          OPTTOL = 1.000E-04          RMIN   = 1.500E-03
          RMAX   = 1.000E-01          RLIM   = 7.000E-02
          DXMAX  = 2.000E-01          PURIFY =         F
          MOVIE  =         F          TRUPD  =         T
          TRMAX  = 3.000E-01          TRMIN  = 5.000E-02
          ITBMAT =         5          STPT   =         F
          STSTEP = 1.000E-02          PROJCT=          T

 BEGINNING GEOMETRY SEARCH POINT NSERCH=   0 ...

 COORDINATES OF ALL ATOMS ARE (ANGS)
   ATOM   CHARGE       X              Y              Z
 ------------------------------------------------------------
 O           8.0   0.1684908260  -1.0360869800  -0.4757900240
 C           6.0   1.5287855550   0.8679172370   0.0003294170
 C           6.0   0.2685093250   0.0473511570   0.0012345780
 O           8.0  -0.7490283660   0.6585878000   0.5979064500
 H           1.0  -1.5031370510   0.0848283960   0.5592418750
 H           1.0   1.3888881800   1.8204588240  -0.4890338670
 H           1.0   1.8422921420   1.0205487490   1.0259538060
 H           1.0   2.3065685170   0.3048570760  -0.5012942730

          ********************
          1 ELECTRON INTEGRALS
          ********************
 ...... END OF ONE-ELECTRON INTEGRALS ......
 CPU     0: STEP CPU TIME=     0.00 TOTAL CPU TIME=        0.0 (    0.0 MIN)
 TOTAL WALL CLOCK TIME=        0.0 SECONDS, CPU UTILIZATION IS 100.00%

          -------------
          GUESS OPTIONS
          -------------
          GUESS =HUCKEL            NORB  =       0          NORDER=       0
          MIX   =       F          PRTMO =       F          PUNMO =       F
          TOLZ  = 1.0E-08          TOLE  = 1.0E-05
          SYMDEN=       F          PURIFY=       F

 INITIAL GUESS ORBITALS GENERATED BY HUCKEL   ROUTINE.
 HUCKEL GUESS REQUIRES     54784 WORDS.

 SYMMETRIES FOR INITIAL GUESS ORBITALS FOLLOW.   BOTH SET(S).
    16 ORBITALS ARE OCCUPIED (    4 CORE ORBITALS).
     5=A        6=A        7=A        8=A        9=A       10=A       11=A   
    12=A       13=A       14=A       15=A       16=A       17=A       18=A   
    19=A       20=A       21=A       22=A       23=A       24=A       25=A   
    26=A   
 ...... END OF INITIAL ORBITAL SELECTION ......
 CPU     0: STEP CPU TIME=     0.01 TOTAL CPU TIME=        0.0 (    0.0 MIN)
 TOTAL WALL CLOCK TIME=        0.0 SECONDS, CPU UTILIZATION IS 100.00%

                    ----------------------
                    AO INTEGRAL TECHNOLOGY
                    ----------------------
     S,P,L SHELL ROTATED AXIS INTEGRALS, REPROGRAMMED BY
        KAZUYA ISHIMURA (IMS) AND JOSE SIERRA (SYNSTAR).
     S,P,D,L SHELL ROTATED AXIS INTEGRALS PROGRAMMED BY
        KAZUYA ISHIMURA (INSTITUTE FOR MOLECULAR SCIENCE).
     S,P,D,F,G SHELL TO TOTAL QUARTET ANGULAR MOMENTUM SUM 5,
        ERIC PROGRAM BY GRAHAM FLETCHER (ELORET AND NASA ADVANCED
        SUPERCOMPUTING DIVISION, AMES RESEARCH CENTER).
     S,P,D,F,G,L SHELL GENERAL RYS QUADRATURE PROGRAMMED BY
        MICHEL DUPUIS (PACIFIC NORTHWEST NATIONAL LABORATORY).

          --------------------
          2 ELECTRON INTEGRALS
          --------------------

 THE -PK- OPTION IS OFF, THE INTEGRALS ARE NOT IN SUPERMATRIX FORM.
 STORING   15000 INTEGRALS/RECORD ON DISK, USING 12 BYTES/INTEGRAL.
 TWO ELECTRON INTEGRAL EVALUATION REQUIRES   90802 WORDS OF MEMORY.
 SCHWARZ INEQUALITY OVERHEAD:      3237 INTEGRALS, T=        0.00
 II,JST,KST,LST =  1  1  1  1 NREC =         1 INTLOC =    1
 II,JST,KST,LST =  2  1  1  1 NREC =         1 INTLOC =    1
 II,JST,KST,LST =  3  1  1  1 NREC =         1 INTLOC =    1
 II,JST,KST,LST =  4  1  1  1 NREC =         1 INTLOC =    2
 II,JST,KST,LST =  5  1  1  1 NREC =         1 INTLOC =   71
 II,JST,KST,LST =  6  1  1  1 NREC =         1 INTLOC =  529
 II,JST,KST,LST =  7  1  1  1 NREC =         1 INTLOC = 6409
 II,JST,KST,LST =  8  1  1  1 NREC =         2 INTLOC =  576
 II,JST,KST,LST =  9  1  1  1 NREC =         2 INTLOC =12162
 II,JST,KST,LST = 10  1  1  1 NREC =         3 INTLOC = 1866
 II,JST,KST,LST = 11  1  1  1 NREC =         4 INTLOC =  578
 II,JST,KST,LST = 12  1  1  1 NREC =         6 INTLOC =11649
 II,JST,KST,LST = 13  1  1  1 NREC =        10 INTLOC = 9182
 II,JST,KST,LST = 14  1  1  1 NREC =        11 INTLOC =10614
 II,JST,KST,LST = 15  1  1  1 NREC =        14 INTLOC =14593
 II,JST,KST,LST = 16  1  1  1 NREC =        22 INTLOC = 2574
 II,JST,KST,LST = 17  1  1  1 NREC =        34 INTLOC = 4655
 II,JST,KST,LST = 18  1  1  1 NREC =        35 INTLOC = 6524
 II,JST,KST,LST = 19  1  1  1 NREC =        37 INTLOC = 6936
 II,JST,KST,LST = 20  1  1  1 NREC =        47 INTLOC = 6270
 II,JST,KST,LST = 21  1  1  1 NREC =        49 INTLOC =11637
 II,JST,KST,LST = 22  1  1  1 NREC =        52 INTLOC = 9963
 II,JST,KST,LST = 23  1  1  1 NREC =        60 INTLOC = 4824
 II,JST,KST,LST = 24  1  1  1 NREC =        63 INTLOC = 3251
 II,JST,KST,LST = 25  1  1  1 NREC =        67 INTLOC =13353
 II,JST,KST,LST = 26  1  1  1 NREC =        79 INTLOC = 2570
 II,JST,KST,LST = 27  1  1  1 NREC =        82 INTLOC =14663
 II,JST,KST,LST = 28  1  1  1 NREC =        87 INTLOC = 1653
 SCHWARZ INEQUALITY TEST SKIPPED        9892 INTEGRAL BLOCKS.
 TOTAL NUMBER OF NONZERO TWO-ELECTRON INTEGRALS =             4724144
        318 INTEGRAL RECORDS WERE STORED ON DISK FILE  8.
  ...... END OF TWO-ELECTRON INTEGRALS .....
 CPU     0: STEP CPU TIME=     0.12 TOTAL CPU TIME=        0.2 (    0.0 MIN)
 TOTAL WALL CLOCK TIME=        0.2 SECONDS, CPU UTILIZATION IS 100.00%

          --------------------------
                 RHF SCF CALCULATION
          --------------------------

     NUCLEAR ENERGY =       122.4649110543
     MAXIT =   30     NPUNCH=    2
     EXTRAP=T  DAMP=F  SHIFT=F  RSTRCT=F  DIIS=T  DEM=F  SOSCF=F
     DENSITY MATRIX CONV=  1.00E-05
     MEMORY REQUIRED FOR RHF ITERS=     76585 WORDS.

 ITER EX DEM     TOTAL ENERGY        E CHANGE  DENSITY CHANGE    DIIS ERROR
   1  0  0     -227.0443103841  -227.0443103841   0.282692767   0.580377076
          * * *   INITIATING DIIS PROCEDURE   * * *
   2  1  0     -227.7192828831    -0.6749724990   0.185707898   0.115544844
   3  2  0     -227.7748765816    -0.0555936985   0.096239709   0.084069560
   4  3  0     -227.8205899142    -0.0457133326   0.014292488   0.006809349
   5  4  0     -227.8215654491    -0.0009755349   0.003810699   0.002259939
   6  5  0     -227.8216640475    -0.0000985984   0.001467161   0.000764131
   7  6  0     -227.8216751957    -0.0000111482   0.000568488   0.000337017
   8  7  0     -227.8216770917    -0.0000018960   0.000229707   0.000138270
   9  8  0     -227.8216773286    -0.0000002370   0.000077949   0.000042978
  10  9  0     -227.8216773569    -0.0000000282   0.000022023   0.000009905
  11 10  0     -227.8216773590    -0.0000000022   0.000004016   0.000001728
  12 11  0     -227.8216773591    -0.0000000001   0.000001079   0.000000502

          -----------------
          DENSITY CONVERGED
          -----------------
     TIME TO FORM FOCK OPERATORS=       0.3 SECONDS (       0.0 SEC/ITER)
     TIME TO SOLVE SCF EQUATIONS=       0.0 SECONDS (       0.0 SEC/ITER)

 FINAL RHF ENERGY IS     -227.8216773591 AFTER  12 ITERATIONS

          ------------
          EIGENVECTORS
          ------------

                      1          2          3          4          5
                  -20.6161   -20.5515   -11.3848   -11.2408    -1.4780
                     A          A          A          A          A   
    1  O  1  S   -0.000297   0.994656  -0.000347  -0.000013  -0.105073
    2  O  1  S    0.000017   0.021083   0.000730  -0.000126   0.231118
    3  O  1  X    0.000037   0.000099  -0.000024  -0.000019  -0.003001
    4  O  1  Y   -0.000030   0.001522   0.000362  -0.000002   0.082395
    5  O  1  Z   -0.000025   0.000686   0.000175   0.000003   0.039508
    6  O  1  S   -0.000290   0.004877  -0.003801   0.000233   0.195378
    7  O  1  X    0.000069  -0.000012   0.000674  -0.000369  -0.008429
    8  O  1  Y   -0.000053   0.000119  -0.001647   0.000174   0.028793
    9  O  1  Z   -0.000046   0.000058  -0.000977   0.000204   0.016051
   10  O  1 XX    0.000020  -0.004003   0.000208  -0.000045  -0.001931
   11  O  1 YY   -0.000008  -0.003640   0.000277   0.000045   0.010158
   12  O  1 ZZ   -0.000031  -0.004084   0.000308  -0.000102   0.002134
   13  O  1 XY    0.000069   0.000068   0.000145  -0.000016  -0.001464
   14  O  1 XZ    0.000018  -0.000044   0.000132  -0.000048  -0.000134
   15  O  1 YZ   -0.000015   0.000287  -0.000105   0.000120   0.006167
   16  C  2  S    0.000000   0.000003   0.002088   0.995733  -0.014702
   17  C  2  S    0.000021   0.000010   0.000040   0.028706   0.030122
   18  C  2  X   -0.000011  -0.000005   0.000042  -0.000226  -0.021920
   19  C  2  Y    0.000006   0.000017   0.000034  -0.000063  -0.012319
   20  C  2  Z    0.000005   0.000011  -0.000002   0.000093   0.001037
   21  C  2  S    0.000361  -0.000202   0.004624  -0.015989  -0.004460
   22  C  2  X    0.000057   0.000178  -0.002158   0.000989   0.004831
   23  C  2  Y   -0.000149   0.000026  -0.001182   0.000903   0.002683
   24  C  2  Z   -0.000082  -0.000040   0.000052  -0.000074  -0.000488
   25  C  2 XX   -0.000055   0.000056  -0.000442  -0.001754   0.005413
   26  C  2 YY    0.000016  -0.000053  -0.000323  -0.001696   0.001580
   27  C  2 ZZ   -0.000008  -0.000007  -0.000242  -0.001652  -0.000324
   28  C  2 XY   -0.000002  -0.000027  -0.000133  -0.000074   0.004308
   29  C  2 XZ    0.000016  -0.000037   0.000023   0.000001   0.000042
   30  C  2 YZ    0.000014  -0.000011  -0.000016  -0.000040  -0.000395
   31  C  3  S    0.000003  -0.000007   0.995823  -0.002459  -0.116682
   32  C  3  S    0.000448   0.000398   0.026372  -0.000005   0.223122
   33  C  3  X   -0.000226   0.000024  -0.001001   0.000074  -0.084057
   34  C  3  Y    0.000158   0.000173   0.000014   0.000035  -0.043820
   35  C  3  Z    0.000143   0.000074   0.000330  -0.000001   0.005295
   36  C  3  S   -0.000098  -0.000498  -0.005858   0.003558   0.046350
   37  C  3  X   -0.000278   0.000241  -0.003722   0.002663   0.027025
   38  C  3  Y   -0.000399   0.000633  -0.003481   0.000857   0.009126
   39  C  3  Z   -0.000103   0.000224  -0.000496  -0.000422  -0.003821
   40  C  3 XX   -0.000115  -0.000040  -0.001328  -0.000526   0.000482
   41  C  3 YY   -0.000048  -0.000777  -0.000950  -0.000392   0.008479
   42  C  3 ZZ   -0.000076  -0.000165  -0.002021  -0.000192  -0.009430
   43  C  3 XY    0.000063  -0.000065   0.000018  -0.000182  -0.007991
   44  C  3 XZ    0.000049  -0.000020  -0.000384   0.000046  -0.010725
   45  C  3 YZ   -0.000014  -0.000395   0.000805  -0.000075   0.017501
   46  O  4  S    0.994622   0.000298  -0.000116  -0.000058  -0.160069
   47  O  4  S    0.021301  -0.000047   0.000646  -0.000363   0.357610
   48  O  4  X   -0.000105  -0.000016   0.000095  -0.000106   0.028411
   49  O  4  Y   -0.001248   0.000033  -0.000102  -0.000015  -0.073615
   50  O  4  Z   -0.000550   0.000020  -0.000076   0.000025  -0.043121
   51  O  4  S    0.004168   0.000175  -0.001955   0.001340   0.323782
   52  O  4  X   -0.000083   0.000006  -0.000491   0.000668   0.024385
   53  O  4  Y    0.000441  -0.000099   0.001727  -0.000148  -0.035263
   54  O  4  Z    0.000231  -0.000049   0.000957  -0.000270  -0.023948
   55  O  4 XX   -0.003978   0.000093  -0.000308  -0.000062   0.008310
   56  O  4 YY   -0.003967  -0.000080  -0.000086  -0.000181   0.006315
   57  O  4 ZZ   -0.004030  -0.000073   0.000269  -0.000239   0.003504
   58  O  4 XY    0.000145   0.000047   0.000193  -0.000034  -0.006736
   59  O  4 XZ    0.000058  -0.000038   0.000385  -0.000096  -0.006224
   60  O  4 YZ   -0.000023  -0.000016  -0.000390   0.000071   0.005712
   61  H  5  S    0.000136  -0.000071   0.000534   0.000063   0.100597
   62  H  5  S   -0.000454  -0.000029   0.000129   0.000349   0.007884
   63  H  5  X   -0.000309  -0.000031   0.000241   0.000037   0.016322
   64  H  5  Y   -0.000213  -0.000034   0.000038   0.000007   0.009995
   65  H  5  Z   -0.000006  -0.000006  -0.000056  -0.000008  -0.000295
   66  H  6  S    0.000017   0.000021  -0.000162   0.000046   0.005611
   67  H  6  S   -0.000016  -0.000020   0.000239   0.002486   0.001179
   68  H  6  X   -0.000016   0.000009  -0.000018  -0.000082  -0.000392
   69  H  6  Y    0.000008  -0.000002  -0.000084   0.000146  -0.000488
   70  H  6  Z    0.000005   0.000007   0.000030  -0.000094   0.000356
   71  H  7  S    0.000016   0.000017  -0.000151   0.000090   0.005895
   72  H  7  S   -0.000022  -0.000023   0.000310   0.002612   0.001602
   73  H  7  X   -0.000015   0.000006  -0.000076   0.000014  -0.000598
   74  H  7  Y    0.000005   0.000006  -0.000050  -0.000004  -0.000114
   75  H  7  Z    0.000010  -0.000006  -0.000072   0.000193  -0.000433
   76  H  8  S   -0.000024  -0.000001  -0.000093   0.000147   0.005719
   77  H  8  S   -0.000155  -0.000088   0.000212   0.002512  -0.002230
   78  H  8  X    0.000013   0.000004  -0.000072   0.000099  -0.000392
   79  H  8  Y    0.000004  -0.000022   0.000037  -0.000101   0.000218
   80  H  8  Z   -0.000002  -0.000011   0.000041  -0.000074   0.000231

                      6          7          8          9         10
                   -1.3676    -1.0256    -0.8331    -0.7015    -0.6831
                     A          A          A          A          A   
    1  O  1  S   -0.167581   0.041161   0.035918   0.090629   0.021947
    2  O  1  S    0.362324  -0.092738  -0.080359  -0.208832  -0.053301
    3  O  1  X    0.019086   0.038727  -0.033011   0.000946   0.270437
    4  O  1  Y    0.101527   0.013766   0.066164   0.340217   0.107625
    5  O  1  Z    0.041692  -0.005026   0.040797   0.159569  -0.030579
    6  O  1  S    0.351461  -0.098474  -0.113283  -0.339709  -0.068670
    7  O  1  X    0.008199   0.016093  -0.023018  -0.004592   0.165119
    8  O  1  Y    0.039791   0.008440   0.034884   0.187422   0.064168
    9  O  1  Z    0.016198  -0.000891   0.023159   0.089496  -0.019262
   10  O  1 XX   -0.002795  -0.000592  -0.003266  -0.008474  -0.000998
   11  O  1 YY    0.010299  -0.000229   0.004031   0.020484   0.006368
   12  O  1 ZZ   -0.001555  -0.000464   0.001898  -0.001501  -0.004333
   13  O  1 XY    0.003014   0.003332  -0.005014   0.001595   0.017946
   14  O  1 XZ    0.000969   0.002005  -0.001147   0.001259   0.008124
   15  O  1 YZ    0.006875  -0.001446   0.003607   0.014508  -0.000765
   16  C  2  S   -0.005520  -0.175461   0.074449   0.000026   0.033580
   17  C  2  S    0.009603   0.330530  -0.134540   0.000696  -0.058307
   18  C  2  X   -0.002300  -0.045349  -0.116629   0.008624  -0.155802
   19  C  2  Y   -0.011940  -0.025085  -0.034951  -0.071637  -0.188496
   20  C  2  Z   -0.004905   0.005514   0.017253  -0.033285  -0.033689
   21  C  2  S    0.001087   0.297972  -0.183936   0.004761  -0.125292
   22  C  2  X    0.006563  -0.004351  -0.023393   0.024135  -0.048193
   23  C  2  Y   -0.007293  -0.006933  -0.002551  -0.034897  -0.071214
   24  C  2  Z   -0.004792  -0.000084   0.004260  -0.021826  -0.015450
   25  C  2 XX   -0.000039   0.004706   0.009161   0.002439   0.011765
   26  C  2 YY    0.002351   0.000270  -0.001181   0.001929   0.000623
   27  C  2 ZZ   -0.000465  -0.001887  -0.003583  -0.001891  -0.009728
   28  C  2 XY    0.002699   0.005236   0.008973   0.002777   0.013985
   29  C  2 XZ    0.001092   0.000133  -0.000049  -0.000632  -0.001832
   30  C  2 YZ    0.000733  -0.001061  -0.001309   0.002293   0.003955
   31  C  3  S   -0.051586  -0.071609  -0.096230  -0.074114  -0.037300
   32  C  3  S    0.101047   0.154407   0.211866   0.176430   0.084370
   33  C  3  X    0.055466   0.133811  -0.118444  -0.017930   0.307661
   34  C  3  Y   -0.195136   0.136175   0.109404  -0.176734  -0.004752
   35  C  3  Z   -0.108229   0.023431   0.086932  -0.076229  -0.093733
   36  C  3  S    0.030050   0.096443   0.151046   0.088571   0.106077
   37  C  3  X   -0.003623   0.022928   0.012546   0.004843   0.106957
   38  C  3  Y    0.026386   0.034159   0.029350  -0.004423   0.053333
   39  C  3  Z    0.013361   0.009298   0.009997  -0.003229  -0.006786
   40  C  3 XX   -0.025250   0.010897  -0.000409   0.003986  -0.011245
   41  C  3 YY    0.022481  -0.000116   0.000562  -0.005022   0.005684
   42  C  3 ZZ   -0.006865  -0.005053  -0.004001  -0.008793   0.000415
   43  C  3 XY    0.014841   0.009663  -0.014289   0.011673  -0.000999
   44  C  3 XZ    0.012951  -0.001163  -0.010543   0.001414   0.003447
   45  C  3 YZ    0.012060  -0.000043   0.010679  -0.002276   0.003360
   46  O  4  S    0.130580   0.026241   0.027069   0.046449  -0.034632
   47  O  4  S   -0.290156  -0.056312  -0.062819  -0.110943   0.078970
   48  O  4  X    0.003572   0.112100   0.396493  -0.149579  -0.106488
   49  O  4  Y    0.032921   0.034970   0.003097  -0.278709   0.240055
   50  O  4  Z    0.014321  -0.017536  -0.119887  -0.083925   0.148174
   51  O  4  S   -0.292255  -0.082599  -0.074509  -0.173502   0.139287
   52  O  4  X   -0.008840   0.042988   0.213424  -0.092605  -0.069701
   53  O  4  Y    0.011377   0.014199  -0.001715  -0.187169   0.147484
   54  O  4  Z    0.008020  -0.006379  -0.066136  -0.058756   0.092603
   55  O  4 XX   -0.004308   0.004339   0.002003  -0.007054   0.006370
   56  O  4 YY   -0.000639  -0.002384  -0.004504   0.014920  -0.011274
   57  O  4 ZZ    0.000084   0.001916   0.004017  -0.003796  -0.000772
   58  O  4 XY   -0.001021  -0.005241  -0.024355   0.004327   0.008537
   59  O  4 XZ    0.001224  -0.003587  -0.012704   0.001826   0.003569
   60  O  4 YZ   -0.000331  -0.000290   0.005963   0.010834  -0.011504
   61  H  5  S   -0.086438  -0.072763  -0.196356   0.125831  -0.008733
   62  H  5  S   -0.004154  -0.018191  -0.071806   0.043393  -0.002248
   63  H  5  X   -0.012524  -0.007098  -0.011694   0.010334  -0.006304
   64  H  5  Y   -0.009400  -0.006334  -0.017253   0.003632   0.006242
   65  H  5  Z   -0.000583  -0.000792  -0.004527  -0.001423   0.004945
   66  H  6  S    0.000566   0.112857  -0.070764  -0.028485  -0.108114
   67  H  6  S   -0.000656   0.027581  -0.030454  -0.023588  -0.065450
   68  H  6  X    0.000442   0.000540  -0.003069   0.000441  -0.003260
   69  H  6  Y    0.000350  -0.009997   0.004968   0.001505   0.004509
   70  H  6  Z    0.000056   0.005029  -0.002485  -0.001659  -0.003984
   71  H  7  S    0.000609   0.114653  -0.069518  -0.023165  -0.092980
   72  H  7  S   -0.001386   0.027590  -0.029175  -0.020980  -0.056837
   73  H  7  X    0.000483  -0.004185  -0.000479   0.001405  -0.000338
   74  H  7  Y    0.000374  -0.002037   0.000295  -0.000429  -0.001578
   75  H  7  Z   -0.000015  -0.010453   0.006304   0.001458   0.006000
   76  H  8  S    0.005103   0.108352  -0.094989   0.031773  -0.028957
   77  H  8  S   -0.000205   0.020456  -0.048125   0.000723  -0.011638
   78  H  8  X   -0.001149  -0.008172   0.004986  -0.001308  -0.001728
   79  H  8  Y   -0.000127   0.005524  -0.004510   0.000115  -0.004801
   80  H  8  Z    0.000266   0.005102  -0.003669   0.000457  -0.001710

                     11         12         13         14         15
                   -0.6542    -0.5785    -0.5678    -0.5647    -0.4792
                     A          A          A          A          A   
    1  O  1  S   -0.001208   0.024911   0.007544   0.000991   0.000075
    2  O  1  S    0.002906  -0.059878  -0.018603  -0.002311  -0.000327
    3  O  1  X    0.054546  -0.041337  -0.038138  -0.035373   0.130589
    4  O  1  Y   -0.100549   0.282988   0.097671   0.058498  -0.191702
    5  O  1  Z    0.197929   0.170955   0.015722  -0.064059   0.405193
    6  O  1  S    0.004578  -0.108998  -0.029085  -0.005252   0.000157
    7  O  1  X    0.034779  -0.024598  -0.019698  -0.024880   0.100274
    8  O  1  Y   -0.063596   0.175036   0.064461   0.036887  -0.146898
    9  O  1  Z    0.125708   0.106502   0.008860  -0.042805   0.311239
   10  O  1 XX    0.000746  -0.008076  -0.002924  -0.000308   0.001299
   11  O  1 YY   -0.014946   0.014680   0.007048   0.005772  -0.022743
   12  O  1 ZZ    0.014166   0.001223  -0.001668  -0.004895   0.021317
   13  O  1 XY    0.004604  -0.002989  -0.004871  -0.001721   0.007729
   14  O  1 XZ    0.003356  -0.000433  -0.001942  -0.000456   0.006398
   15  O  1 YZ    0.013971   0.013789   0.003318  -0.004108   0.022077
   16  C  2  S    0.000832   0.002272   0.002006   0.000511   0.000120
   17  C  2  S   -0.002153  -0.006023  -0.006704  -0.001557  -0.000363
   18  C  2  X    0.062193   0.034673   0.338919  -0.018609  -0.015779
   19  C  2  Y   -0.096234   0.264250  -0.201606  -0.037443   0.027447
   20  C  2  Z    0.197226   0.043285  -0.052037   0.374636  -0.060147
   21  C  2  S   -0.000731  -0.033423  -0.005118  -0.002717  -0.000349
   22  C  2  X    0.027663   0.016130   0.169806  -0.003121  -0.004218
   23  C  2  Y   -0.043819   0.132209  -0.113673  -0.026881   0.005847
   24  C  2  Z    0.088021   0.018262  -0.021774   0.207315  -0.018168
   25  C  2 XX   -0.002903  -0.015464   0.002167  -0.003618  -0.000919
   26  C  2 YY   -0.006947   0.007255  -0.006676  -0.015108   0.006148
   27  C  2 ZZ    0.009886   0.007159   0.003704   0.018769  -0.005242
   28  C  2 XY    0.004048  -0.004654  -0.017166   0.010629  -0.001186
   29  C  2 XZ   -0.003115   0.007635  -0.011246   0.011253  -0.003101
   30  C  2 YZ    0.004082  -0.007860   0.016571   0.006879  -0.005448
   31  C  3  S    0.001355   0.006947   0.021617  -0.005202  -0.000250
   32  C  3  S   -0.003601  -0.013181  -0.047563   0.011222   0.000583
   33  C  3  X    0.065096  -0.073289  -0.141398   0.008851   0.046703
   34  C  3  Y   -0.105789  -0.254894  -0.100982   0.026667  -0.070006
   35  C  3  Z    0.235116  -0.073151  -0.040330  -0.079138   0.151387
   36  C  3  S   -0.001929  -0.046836  -0.090653   0.020352   0.000102
   37  C  3  X    0.029715  -0.023051  -0.053624  -0.008748   0.027218
   38  C  3  Y   -0.050455  -0.004737  -0.010814   0.032138  -0.040870
   39  C  3  Z    0.107517   0.020552  -0.015576  -0.047692   0.087266
   40  C  3 XX   -0.004217  -0.033203  -0.001276   0.004859   0.004353
   41  C  3 YY    0.001668   0.022708  -0.001974   0.000387   0.029912
   42  C  3 ZZ    0.002744   0.000300   0.000295  -0.006029  -0.034318
   43  C  3 XY    0.003223   0.003891  -0.019009   0.000965  -0.015791
   44  C  3 XZ   -0.008320   0.008423  -0.000679   0.021824   0.001589
   45  C  3 YZ   -0.003462   0.010951   0.008474   0.006234  -0.027833
   46  O  4  S    0.000608  -0.033441  -0.033665   0.006641  -0.000073
   47  O  4  S   -0.001099   0.077932   0.075141  -0.013310   0.000182
   48  O  4  X    0.098960   0.040438   0.114927  -0.132145  -0.099240
   49  O  4  Y   -0.152714   0.277425   0.206649   0.124742   0.151634
   50  O  4  Z    0.312939   0.188109  -0.071659  -0.252058  -0.331075
   51  O  4  S   -0.003704   0.142944   0.158122  -0.037291   0.000628
   52  O  4  X    0.068032   0.017341   0.077340  -0.098859  -0.083373
   53  O  4  Y   -0.105158   0.190770   0.149933   0.091967   0.127279
   54  O  4  Z    0.216899   0.135769  -0.051997  -0.187590  -0.277312
   55  O  4 XX    0.004120   0.001616  -0.004410  -0.000032  -0.000932
   56  O  4 YY    0.012635  -0.008203  -0.012526  -0.008237  -0.008735
   57  O  4 ZZ   -0.016349   0.000581   0.006628   0.011902   0.009666
   58  O  4 XY   -0.008485  -0.003520  -0.008132   0.008815   0.004042
   59  O  4 XZ    0.004875   0.001192  -0.003096  -0.000352   0.000037
   60  O  4 YZ   -0.010574  -0.010205   0.000355   0.008578   0.008342
   61  H  5  S    0.000100  -0.098046  -0.109131   0.021886   0.000243
   62  H  5  S    0.000045  -0.053968  -0.068196   0.015200  -0.000525
   63  H  5  X    0.003150  -0.009301  -0.006747  -0.002388  -0.002903
   64  H  5  Y   -0.004786  -0.001225  -0.002262   0.005301   0.004525
   65  H  5  Z    0.009818   0.004538  -0.003319  -0.008119  -0.009704
   66  H  6  S   -0.113113   0.140607  -0.136837  -0.136883   0.044330
   67  H  6  S   -0.083576   0.118976  -0.100490  -0.103101   0.065736
   68  H  6  X    0.000856   0.001353   0.003749  -0.001595  -0.000669
   69  H  6  Y    0.006358  -0.004191   0.004635   0.007377  -0.002439
   70  H  6  Z   -0.000781   0.005413  -0.004556   0.001951   0.000207
   71  H  7  S    0.117145   0.061086   0.010949   0.234104  -0.047598
   72  H  7  S    0.087452   0.059925   0.010936   0.183236  -0.068409
   73  H  7  X   -0.002723  -0.001131   0.004975  -0.004642   0.001425
   74  H  7  Y   -0.003266   0.003868  -0.003101  -0.002771   0.001311
   75  H  7  Z   -0.004936  -0.003167  -0.001769  -0.008565   0.001831
   76  H  8  S    0.000273  -0.090332   0.247504  -0.115466   0.001990
   77  H  8  S   -0.000777  -0.072067   0.196948  -0.095450   0.002107
   78  H  8  X    0.000945   0.004680  -0.006551   0.005074  -0.000317
   79  H  8  Y   -0.001329   0.000746   0.006032  -0.004376   0.000453
   80  H  8  Z    0.003036  -0.001980   0.006875   0.001922  -0.000868

                     16         17         18         19         20
                   -0.4477     0.1943     0.2278     0.2594     0.3078
                     A          A          A          A          A   
    1  O  1  S   -0.001729  -0.000139   0.017847  -0.013765  -0.010761
    2  O  1  S    0.011172   0.001873  -0.024325   0.009067   0.022794
    3  O  1  X    0.537372   0.090828   0.057317   0.071154  -0.015027
    4  O  1  Y    0.044995  -0.133735   0.013628   0.038438   0.049515
    5  O  1  Z   -0.150802   0.288367  -0.008894  -0.000324   0.032175
    6  O  1  S   -0.017037  -0.007110  -0.235227   0.239058   0.068788
    7  O  1  X    0.406731   0.124115   0.044080   0.052196   0.002429
    8  O  1  Y    0.028791  -0.186297  -0.079379   0.119091   0.076643
    9  O  1  Z   -0.116692   0.395978  -0.047564   0.044949   0.042584
   10  O  1 XX    0.003147  -0.001474   0.010938  -0.007226   0.000286
   11  O  1 YY    0.005767   0.004197  -0.006780  -0.001244  -0.001858
   12  O  1 ZZ   -0.002692  -0.001399   0.006419  -0.008342  -0.002832
   13  O  1 XY    0.021092   0.000052  -0.000463   0.001065  -0.005143
   14  O  1 XZ    0.009503  -0.003722  -0.000614  -0.000587  -0.004295
   15  O  1 YZ   -0.004752  -0.004042  -0.008988   0.004676   0.003335
   16  C  2  S    0.021360  -0.001467   0.080910  -0.113232   0.019975
   17  C  2  S   -0.042373   0.001471  -0.063613   0.070860  -0.010619
   18  C  2  X    0.145869  -0.012900  -0.001169   0.089334  -0.217179
   19  C  2  Y    0.164303   0.022929   0.012548   0.132783   0.163138
   20  C  2  Z    0.044133  -0.042954   0.002649   0.050202   0.156190
   21  C  2  S   -0.128055   0.017283  -1.367205   2.119942  -0.433043
   22  C  2  X    0.079025  -0.100934  -0.138747   0.276056  -0.958590
   23  C  2  Y    0.104701   0.180931   0.092976   0.596250   0.850014
   24  C  2  Z    0.032564  -0.334041   0.049234   0.275814   0.738712
   25  C  2 XX   -0.009915   0.011689   0.008979   0.000338   0.008819
   26  C  2 YY    0.002783  -0.020027  -0.002164  -0.009467  -0.000448
   27  C  2 ZZ    0.007226   0.007632   0.002954  -0.010737  -0.000499
   28  C  2 XY   -0.006653  -0.004229  -0.007186  -0.001584  -0.007895
   29  C  2 XZ    0.003228   0.025240  -0.005855  -0.005441  -0.008324
   30  C  2 YZ   -0.000948   0.020765   0.000756   0.002851   0.005066
   31  C  3  S    0.016709   0.001487  -0.017692   0.008292   0.016772
   32  C  3  S   -0.036923  -0.003783  -0.011272   0.063723   0.008093
   33  C  3  X   -0.112415  -0.129766  -0.033493  -0.018851  -0.041225
   34  C  3  Y   -0.059093   0.188306   0.039124   0.031043   0.013858
   35  C  3  Z    0.006156  -0.409888   0.024454   0.017474   0.012676
   36  C  3  S   -0.093193  -0.002253   0.463088  -0.475946  -0.411103
   37  C  3  X    0.043463  -0.161749   0.102408   0.136193   0.020557
   38  C  3  Y   -0.052635   0.237528  -0.009828   0.056443  -0.139970
   39  C  3  Z   -0.038685  -0.533872  -0.037472  -0.028863  -0.088228
   40  C  3 XX   -0.006135  -0.007096  -0.015171  -0.005561  -0.009819
   41  C  3 YY   -0.005677   0.016583   0.010187   0.012409   0.020015
   42  C  3 ZZ    0.008987  -0.009483   0.003529   0.000905  -0.004317
   43  C  3 XY   -0.051096  -0.000003  -0.002717   0.004038   0.014702
   44  C  3 XZ   -0.022380  -0.014666   0.005182   0.003696   0.008579
   45  C  3 YZ    0.015073  -0.017485   0.004631   0.005489   0.009485
   46  O  4  S   -0.013399  -0.000830   0.077285   0.025160  -0.009943
   47  O  4  S    0.016364   0.000218  -0.086929  -0.022595  -0.041495
   48  O  4  X    0.116837   0.048646   0.147189   0.105643  -0.094025
   49  O  4  Y   -0.164078  -0.076819   0.121266   0.070263  -0.052187
   50  O  4  Z   -0.113288   0.161502   0.012380   0.003870   0.007783
   51  O  4  S    0.144745   0.013479  -1.016922  -0.298588   0.379301
   52  O  4  X    0.096496   0.068243   0.383563   0.283995  -0.122477
   53  O  4  Y   -0.140964  -0.108377   0.344570   0.093499  -0.138346
   54  O  4  Z   -0.095972   0.225285   0.045468  -0.038651  -0.022338
   55  O  4 XX   -0.011723  -0.009798   0.029911   0.022580  -0.008581
   56  O  4 YY    0.001699  -0.001801   0.018651   0.010259  -0.014436
   57  O  4 ZZ   -0.003989   0.009977   0.037069   0.013432  -0.027164
   58  O  4 XY   -0.007257   0.008555  -0.011025  -0.008394   0.013101
   59  O  4 XZ   -0.001825  -0.015359  -0.001814  -0.008547  -0.001514
   60  O  4 YZ    0.007218  -0.001182  -0.007944   0.002621   0.004151
   61  H  5  S   -0.007645  -0.001099   0.090819   0.038124   0.014111
   62  H  5  S   -0.061715  -0.011587   1.439508   0.769316  -0.417920
   63  H  5  X    0.002825   0.002182   0.006845  -0.000589  -0.004864
   64  H  5  Y   -0.000822  -0.003349   0.005330   0.001581  -0.001890
   65  H  5  Z   -0.001296   0.007158   0.000435   0.001054   0.000743
   66  H  6  S    0.057722  -0.097550  -0.018406  -0.019478  -0.028269
   67  H  6  S    0.064674  -0.583319   0.446242  -1.300971  -0.559143
   68  H  6  X    0.003280  -0.005192  -0.001523   0.002072  -0.004015
   69  H  6  Y   -0.000765  -0.000298  -0.001505   0.004270   0.004498
   70  H  6  Z    0.002755  -0.001823   0.000704   0.000954   0.003791
   71  H  7  S    0.060155   0.100119  -0.016392  -0.021725  -0.031755
   72  H  7  S    0.069236   0.584396   0.491567  -1.356742  -0.591366
   73  H  7  X    0.001563   0.004388  -0.002007   0.002676  -0.003138
   74  H  7  Y    0.002437   0.003560  -0.001115   0.004078   0.004162
   75  H  7  Z   -0.003300  -0.003593  -0.001028   0.002262   0.003245
   76  H  8  S   -0.016997  -0.003450   0.029447   0.030551   0.075275
   77  H  8  S    0.024120  -0.010631   0.725030  -0.474797   2.109634
   78  H  8  X    0.001207   0.000076  -0.000223   0.001749  -0.005496
   79  H  8  Y    0.000430  -0.000382   0.001429   0.001953   0.001773
   80  H  8  Z    0.000110   0.000888   0.001039   0.000178   0.002817

                     21         22         23         24         25
                    0.3292     0.3988     0.4809     0.5248     0.7307
                     A          A          A          A          A   
    1  O  1  S   -0.000295   0.011914  -0.111581  -0.053725   0.000702
    2  O  1  S   -0.004296  -0.028988   0.060434   0.010199   0.001859
    3  O  1  X    0.023373  -0.042457  -0.054447   0.157623  -0.008937
    4  O  1  Y   -0.046916  -0.081385   0.089066  -0.005172   0.020156
    5  O  1  Z    0.093831  -0.024211   0.056981  -0.050933  -0.045189
    6  O  1  S    0.029816  -0.068981   2.532523   1.552087  -0.044983
    7  O  1  X    0.058776  -0.210742  -0.237489   0.526252   0.003254
    8  O  1  Y   -0.095629  -0.180733   0.928090   0.449500   0.004748
    9  O  1  Z    0.220815  -0.019674   0.504563   0.050701  -0.023166
   10  O  1 XX    0.001519  -0.006913  -0.061109  -0.046013   0.003705
   11  O  1 YY   -0.000730  -0.007326   0.001524   0.003786   0.040892
   12  O  1 ZZ   -0.004552   0.007590  -0.063429  -0.019490  -0.043094
   13  O  1 XY   -0.001826  -0.005634   0.003739  -0.003674  -0.018204
   14  O  1 XZ    0.004606   0.004087  -0.006212   0.005688   0.000774
   15  O  1 YZ    0.000898  -0.009054   0.044851   0.017157  -0.037257
   16  C  2  S    0.004445   0.083845   0.028006  -0.017056   0.001257
   17  C  2  S   -0.008151   0.010079   0.064247   0.021856   0.003445
   18  C  2  X    0.091047   0.085225  -0.118934   0.068735  -0.061945
   19  C  2  Y   -0.156114   0.113307  -0.157825  -0.010758   0.137264
   20  C  2  Z    0.287937   0.028077  -0.052877  -0.010567  -0.396850
   21  C  2  S   -0.064835  -1.912970  -1.436911   0.220971   0.057057
   22  C  2  X    0.429849   1.684089   0.762278   0.190295   0.092727
   23  C  2  Y   -0.732101   1.181118   0.064876  -0.982772  -0.311658
   24  C  2  Z    1.315003   0.021148  -0.234237  -0.504378   0.818077
   25  C  2 XX    0.006557   0.025260   0.024715   0.023118   0.016859
   26  C  2 YY   -0.002952  -0.002148   0.006764  -0.034513   0.041157
   27  C  2 ZZ   -0.003143  -0.010333   0.000170   0.003496  -0.050819
   28  C  2 XY   -0.003532   0.025993   0.001740  -0.033200  -0.022414
   29  C  2 XZ    0.011724   0.000628  -0.010149  -0.024230   0.004127
   30  C  2 YZ    0.005201  -0.004404   0.007865  -0.006169  -0.020948
   31  C  3  S   -0.001778  -0.130256   0.054543  -0.042728  -0.001844
   32  C  3  S    0.007561   0.153794   0.141752  -0.017012   0.021086
   33  C  3  X   -0.038854   0.193522   0.190789  -0.348970  -0.197699
   34  C  3  Y    0.081690   0.205695   0.111507   0.081624   0.340120
   35  C  3  Z   -0.168084   0.035445  -0.004123   0.150235  -0.698112
   36  C  3  S   -0.020861   2.895150  -2.196212   0.251146  -0.078001
   37  C  3  X   -0.159069   1.047489   1.497198  -1.661004   0.126902
   38  C  3  Y    0.282266   0.975066   2.041261   2.006802  -0.380781
   39  C  3  Z   -0.526458   0.137170   0.506703   1.441704   0.575840
   40  C  3 XX    0.006174   0.002296   0.021469  -0.012666   0.009866
   41  C  3 YY    0.000503   0.010000  -0.000101  -0.014077   0.000528
   42  C  3 ZZ   -0.006454   0.010180  -0.011474   0.008744  -0.009226
   43  C  3 XY   -0.005260   0.005882   0.008169  -0.002210  -0.010558
   44  C  3 XZ    0.006387   0.006876  -0.010437   0.009934   0.019559
   45  C  3 YZ   -0.000824  -0.003458   0.006303  -0.016452   0.002333
   46  O  4  S   -0.000348   0.024408  -0.030331   0.085948   0.000422
   47  O  4  S    0.002524  -0.027795   0.044313  -0.104826  -0.022694
   48  O  4  X    0.037537  -0.141574   0.131196  -0.199272  -0.027507
   49  O  4  Y   -0.053668   0.024424  -0.089969   0.012213   0.012646
   50  O  4  Z    0.109682   0.053572  -0.084780   0.068824  -0.038677
   51  O  4  S   -0.005261  -0.376582   0.490349  -1.745113   0.055266
   52  O  4  X    0.049649  -0.472877   0.255255  -0.970168  -0.001041
   53  O  4  Y   -0.073100  -0.037432  -0.509896   0.248965   0.039826
   54  O  4  Z    0.148815   0.127048  -0.318205   0.412618  -0.060760
   55  O  4 XX   -0.005303   0.016204   0.020173   0.013675  -0.018076
   56  O  4 YY    0.001763   0.000653   0.007577   0.021107  -0.029860
   57  O  4 ZZ    0.004829   0.008267  -0.023963   0.023122   0.027495
   58  O  4 XY    0.004581   0.003736   0.010951   0.010292   0.023255
   59  O  4 XZ   -0.009907  -0.000053  -0.014261   0.010062  -0.020582
   60  O  4 YZ   -0.002280  -0.006354   0.020107  -0.008043   0.016944
   61  H  5  S    0.000463  -0.020299   0.076218   0.000938   0.014889
   62  H  5  S    0.007711  -0.208428   0.444949  -0.466445  -0.030449
   63  H  5  X    0.001610  -0.008603  -0.012905  -0.010226   0.002324
   64  H  5  Y   -0.002311   0.003486  -0.002498   0.000246  -0.002170
   65  H  5  Z    0.004576   0.004158   0.002591   0.003409   0.004592
   66  H  6  S    0.004769  -0.064010  -0.035281  -0.026783   0.288630
   67  H  6  S    1.671961  -0.251912   0.328437   0.328801   0.179454
   68  H  6  X   -0.003932   0.006548  -0.005551  -0.017608   0.011953
   69  H  6  Y   -0.004365   0.003769   0.002705  -0.012987  -0.002295
   70  H  6  Z    0.005575   0.000054  -0.002576  -0.001600   0.021150
   71  H  7  S   -0.005727  -0.070050  -0.028235  -0.001143  -0.325420
   72  H  7  S   -1.553752  -0.170506   0.375351   0.210627  -0.185256
   73  H  7  X    0.007728   0.004645  -0.002236  -0.016600   0.000398
   74  H  7  Y    0.000687   0.002494   0.000405  -0.010558  -0.012778
   75  H  7  Z    0.003761   0.000146   0.005922  -0.000882   0.021476
   76  H  8  S    0.000351  -0.065067   0.031503   0.133185   0.062095
   77  H  8  S   -0.041308   0.135590  -0.170197  -0.563568   0.010687
   78  H  8  X    0.002335   0.009366   0.006422   0.022590   0.003434
   79  H  8  Y   -0.003256   0.006586   0.000850   0.015675  -0.008744
   80  H  8  Z    0.006402   0.000584  -0.002222   0.000470   0.020776

                     26         27         28         29         30
                    0.7553     0.7969     0.8141     0.8250     0.9491
                     A          A          A          A          A   
    1  O  1  S   -0.013687   0.017822   0.004390  -0.005305   0.038176
    2  O  1  S   -0.030703  -0.022230   0.030839   0.011338  -0.112830
    3  O  1  X   -0.035577   0.074757   0.194144   0.045735  -0.133896
    4  O  1  Y   -0.047858  -0.009298   0.058941  -0.033561  -0.232775
    5  O  1  Z   -0.021035  -0.006104  -0.053734   0.062765  -0.068065
    6  O  1  S    0.710241  -0.672400  -0.311222   0.186777   0.299526
    7  O  1  X   -0.060236  -0.141137   0.217220   0.149876  -0.181770
    8  O  1  Y    0.210347  -0.204909  -0.156420  -0.028440  -0.348212
    9  O  1  Z    0.099494  -0.003668  -0.183156   0.160646  -0.106718
   10  O  1 XX   -0.010008  -0.010865   0.011816   0.019060  -0.058745
   11  O  1 YY    0.002818  -0.018899  -0.006597  -0.029780   0.130103
   12  O  1 ZZ   -0.018297   0.014671   0.000118   0.016540  -0.022847
   13  O  1 XY   -0.036148  -0.062764  -0.002554   0.013500   0.021181
   14  O  1 XZ   -0.024255  -0.022511  -0.007772   0.032066   0.010366
   15  O  1 YZ    0.018710   0.027925  -0.019614   0.030518   0.095566
   16  C  2  S   -0.002230  -0.012264  -0.030632  -0.002839  -0.001927
   17  C  2  S    0.155400   0.145802   0.289828   0.040421   0.092269
   18  C  2  X   -0.401518  -0.176932  -0.712186  -0.298501   0.073957
   19  C  2  Y    0.272539  -0.533049  -0.421033   0.327728  -0.035947
   20  C  2  Z    0.259219  -0.339059   0.120876  -0.426892  -0.050471
   21  C  2  S   -0.780046  -0.148016   0.244814   0.067890  -1.269462
   22  C  2  X    0.857398  -0.222539   0.850792   0.724586   0.453312
   23  C  2  Y   -0.732637   1.236088   0.341868  -1.134925   0.547479
   24  C  2  Z   -0.638396   1.001205  -0.424861   1.178568   0.148571
   25  C  2 XX   -0.027193   0.011012   0.016463   0.016283  -0.095617
   26  C  2 YY   -0.002493   0.033452   0.007244   0.036433   0.043231
   27  C  2 ZZ    0.054200  -0.008949   0.027442  -0.041457   0.022671
   28  C  2 XY   -0.005592  -0.025124   0.011651  -0.018704  -0.019704
   29  C  2 XZ    0.037711  -0.018954   0.002568   0.022827   0.033613
   30  C  2 YZ   -0.052535   0.035754  -0.000164  -0.042736   0.015222
   31  C  3  S   -0.008945   0.001736   0.062775   0.010675  -0.040465
   32  C  3  S    0.326816   0.504170  -0.367078  -0.141219   0.157191
   33  C  3  X   -0.543277  -0.501978   0.151018   0.288107  -0.207180
   34  C  3  Y    0.128584   0.021076  -0.147861  -0.281018  -0.832412
   35  C  3  Z    0.099860   0.359670  -0.273633   0.447990  -0.327943
   36  C  3  S   -0.442163  -0.529949   1.186807   0.210186   1.041917
   37  C  3  X    0.833663   1.138945  -1.121270  -0.924448   1.193496
   38  C  3  Y    0.727900  -1.086740  -0.033963   0.907937   1.372393
   39  C  3  Z    0.256243  -1.225651   0.646256  -0.798957   0.273724
   40  C  3 XX    0.029161   0.056915   0.111709   0.017855   0.131754
   41  C  3 YY    0.005552   0.037584   0.013575  -0.003162  -0.139574
   42  C  3 ZZ    0.007461  -0.002105  -0.056116  -0.016488   0.029357
   43  C  3 XY    0.039602   0.089880   0.057816  -0.012277  -0.061400
   44  C  3 XZ    0.019064   0.022795  -0.043311  -0.006763  -0.057820
   45  C  3 YZ   -0.019440  -0.015248   0.034954   0.004120  -0.082565
   46  O  4  S    0.010814  -0.006883  -0.008233   0.001878  -0.013118
   47  O  4  S    0.067934  -0.183774   0.153873   0.071276  -0.065657
   48  O  4  X    0.017081  -0.144440   0.087334   0.093731   0.113497
   49  O  4  Y    0.147937   0.059228   0.002551  -0.069674  -0.242869
   50  O  4  Z    0.054082   0.104081  -0.062791   0.118771  -0.147612
   51  O  4  S   -0.111323   1.200271  -0.844523  -0.478670   0.008514
   52  O  4  X   -0.234548   0.297624  -0.144532  -0.099397  -0.261058
   53  O  4  Y   -0.130693  -0.055117   0.224342   0.005553  -0.006530
   54  O  4  Z   -0.010140  -0.077846   0.121378   0.158932   0.077073
   55  O  4 XX    0.051133  -0.009427  -0.085070   0.003637  -0.159013
   56  O  4 YY    0.034442  -0.047663   0.056905   0.021070  -0.024407
   57  O  4 ZZ    0.044363  -0.079041   0.069194   0.019238   0.000600
   58  O  4 XY   -0.074748  -0.075318  -0.000195  -0.004269  -0.048803
   59  O  4 XZ   -0.055259  -0.061498   0.052234   0.050201   0.037507
   60  O  4 YZ    0.038486   0.057822  -0.015824  -0.007843  -0.004518
   61  H  5  S   -0.215174  -0.086183  -0.181895  -0.039384  -0.239477
   62  H  5  S    0.388937   0.283472  -0.042357  -0.059705   0.405103
   63  H  5  X   -0.024234  -0.000166   0.053500   0.007267   0.033363
   64  H  5  Y    0.019623   0.031508  -0.013471  -0.005060   0.044060
   65  H  5  Z    0.018095   0.012027  -0.020844  -0.013197   0.010416
   66  H  6  S    0.235728  -0.114526  -0.152263   0.332855   0.015453
   67  H  6  S    0.190580  -0.162097  -0.096742   0.452427  -0.215050
   68  H  6  X    0.000879  -0.003771  -0.009794  -0.024328  -0.022946
   69  H  6  Y   -0.018761   0.029026   0.005488  -0.041882  -0.004050
   70  H  6  Z   -0.018608   0.012119  -0.012732   0.020962   0.007457
   71  H  7  S    0.223159  -0.204776  -0.035794  -0.261136   0.009995
   72  H  7  S    0.138153  -0.208411   0.001567  -0.275931  -0.228439
   73  H  7  X   -0.000063   0.014499  -0.017821   0.036930  -0.023161
   74  H  7  Y   -0.028942   0.029091  -0.010772  -0.006167  -0.002542
   75  H  7  Z   -0.004629   0.026855   0.004454   0.026090   0.004843
   76  H  8  S   -0.355903   0.225111  -0.143003  -0.089026  -0.034068
   77  H  8  S   -0.224299   0.307255  -0.135342  -0.159385   0.294011
   78  H  8  X    0.016247  -0.045389   0.014265   0.024727  -0.017137
   79  H  8  Y   -0.024556  -0.016888   0.000338  -0.012899   0.004423
   80  H  8  Z   -0.014764   0.008847  -0.010812   0.022289   0.007612

                     31         32         33         34         35
                    1.0002     1.0421     1.0932     1.1009     1.1280
                     A          A          A          A          A   
    1  O  1  S   -0.013742   0.021888  -0.001468   0.001899  -0.014468
    2  O  1  S    0.131271  -0.195335   0.300297   0.044500  -0.186652
    3  O  1  X   -0.201706   0.019115  -0.073237   0.052102  -0.029505
    4  O  1  Y    0.141637   0.011866  -0.442783  -0.138272   0.420060
    5  O  1  Z    0.122893  -0.005827  -0.191620   0.143878   0.237475
    6  O  1  S   -0.359864   0.099903  -0.229653  -0.069883   0.214777
    7  O  1  X   -0.101810  -0.044901   0.188729  -0.045286   0.154108
    8  O  1  Y   -0.027486  -0.459111   0.888117   0.132347  -0.612390
    9  O  1  Z    0.027857  -0.195829   0.360520  -0.079713  -0.357869
   10  O  1 XX    0.037546  -0.086840   0.121416   0.009039  -0.085094
   11  O  1 YY   -0.038742  -0.012601   0.192523   0.038561  -0.181232
   12  O  1 ZZ    0.066535  -0.050640   0.131071   0.018097  -0.101587
   13  O  1 XY   -0.043875  -0.030495  -0.011144  -0.001618  -0.014158
   14  O  1 XZ    0.000202  -0.006310  -0.009910  -0.010521  -0.006011
   15  O  1 YZ   -0.056314   0.039631   0.049295  -0.001516  -0.050888
   16  C  2  S   -0.050826  -0.014143  -0.005479   0.002048  -0.003418
   17  C  2  S   -0.028130  -0.120561  -0.193469   0.001364   0.320975
   18  C  2  X   -0.128830  -0.176188   0.153995   0.155501   0.276491
   19  C  2  Y    0.005161  -0.057189  -0.387222  -0.314736  -0.342905
   20  C  2  Z    0.007136  -0.013276  -0.267676   0.675840  -0.162742
   21  C  2  S   -0.848298   0.170075   0.608156  -0.088927  -0.335444
   22  C  2  X    1.249028   0.437734  -0.357693  -0.230743  -0.500580
   23  C  2  Y    0.729322   0.062777   0.678142   0.569741   0.238356
   24  C  2  Z    0.074808  -0.019168   0.486757  -1.081004   0.130708
   25  C  2 XX   -0.060618  -0.018310  -0.121651  -0.029715  -0.022777
   26  C  2 YY   -0.061551  -0.036556   0.050346   0.195278   0.005655
   27  C  2 ZZ   -0.019815   0.014555   0.051087  -0.164968   0.048100
   28  C  2 XY   -0.072831  -0.031168   0.087329  -0.048952   0.083212
   29  C  2 XZ   -0.018776   0.001493   0.119968  -0.088428   0.090046
   30  C  2 YZ    0.004980  -0.016955  -0.048659  -0.147867  -0.144793
   31  C  3  S    0.011030  -0.028620  -0.046192  -0.006397   0.059640
   32  C  3  S   -1.289542   0.080845  -0.335379  -0.059519   0.247051
   33  C  3  X   -0.492813  -0.161098   0.018654  -0.003183   0.019013
   34  C  3  Y   -0.045321  -0.433472   0.163855  -0.038212   0.060408
   35  C  3  Z    0.126000  -0.155786   0.066561   0.044513   0.030634
   36  C  3  S    2.948282   0.517882  -0.163698   0.099400   0.225430
   37  C  3  X    1.709338   0.232805  -0.204109   0.110958  -0.755830
   38  C  3  Y    0.655986   0.350979  -0.005242   0.056021  -0.120650
   39  C  3  Z   -0.236194   0.085242   0.067933  -0.045211   0.167570
   40  C  3 XX   -0.103370  -0.079773   0.070508   0.040983   0.043543
   41  C  3 YY   -0.001258   0.039637  -0.209522  -0.050211   0.167557
   42  C  3 ZZ   -0.071771   0.008715   0.002070  -0.015474  -0.019058
   43  C  3 XY    0.019581   0.048839  -0.024976  -0.023796  -0.004540
   44  C  3 XZ    0.018369   0.059660  -0.022962   0.079346  -0.033104
   45  C  3 YZ    0.037967  -0.009958  -0.134924   0.019624   0.142667
   46  O  4  S   -0.002977   0.026227   0.006148  -0.000595   0.012290
   47  O  4  S   -0.106050  -0.037688  -0.282158   0.005295  -0.229052
   48  O  4  X    0.038754   0.116144   0.104659  -0.016339   0.133016
   49  O  4  Y   -0.165169   0.496556   0.132558   0.079696  -0.215751
   50  O  4  Z   -0.082367   0.204813   0.027685  -0.060080  -0.143350
   51  O  4  S    0.162797   0.021797   0.459192   0.023320   0.056592
   52  O  4  X   -0.088448   0.072430  -0.189942   0.050756  -0.429962
   53  O  4  Y    0.029229  -0.478499  -0.108327  -0.115410   0.364117
   54  O  4  Z    0.038123  -0.253393   0.006981   0.085677   0.309590
   55  O  4 XX   -0.025507   0.164174  -0.063444   0.002794  -0.039588
   56  O  4 YY   -0.056595   0.094210  -0.021767  -0.008896  -0.093453
   57  O  4 ZZ   -0.035922  -0.050580  -0.085602   0.022654  -0.098667
   58  O  4 XY    0.024598   0.180774   0.053253   0.009677   0.068550
   59  O  4 XZ    0.012764   0.005632   0.016022   0.001404   0.014575
   60  O  4 YZ   -0.024503   0.028548   0.019008   0.018446  -0.019345
   61  H  5  S    0.126079   0.678662   0.134577   0.009496   0.160683
   62  H  5  S    0.039928  -0.662223  -0.403461   0.001896  -0.468399
   63  H  5  X   -0.005968  -0.172165  -0.046837  -0.008537  -0.024858
   64  H  5  Y    0.015294  -0.118385  -0.065396  -0.004209  -0.017762
   65  H  5  Z    0.008918  -0.002799  -0.016233  -0.003095  -0.001139
   66  H  6  S   -0.276087  -0.020758   0.205239   0.616138   0.275712
   67  H  6  S   -0.161772  -0.065783  -0.635403  -1.312602  -0.348385
   68  H  6  X   -0.012007  -0.010209   0.008703  -0.006026   0.021161
   69  H  6  Y   -0.037736  -0.007636   0.033665   0.112129   0.011837
   70  H  6  Z    0.018921  -0.012917  -0.035174  -0.017006  -0.065382
   71  H  7  S   -0.286429   0.007635   0.245432  -0.646381   0.124777
   72  H  7  S   -0.253373  -0.175779  -0.706009   1.362900  -0.058264
   73  H  7  X   -0.027448  -0.002580   0.031703  -0.039879   0.041700
   74  H  7  Y   -0.015219  -0.015282  -0.003114  -0.044627  -0.050819
   75  H  7  Z   -0.026262   0.011513   0.042111  -0.098707   0.007016
   76  H  8  S   -0.164157  -0.015628  -0.454217   0.071411  -0.596496
   77  H  8  S   -0.427047  -0.236817   0.953811  -0.102533   1.087058
   78  H  8  X   -0.033218   0.009581  -0.069812   0.016450  -0.054881
   79  H  8  Y   -0.012564  -0.000895   0.020544  -0.030693   0.058747
   80  H  8  Z    0.007138  -0.003494   0.027787   0.042103   0.053191

                     36         37         38         39         40
                    1.1786     1.2112     1.2195     1.3006     1.3205
                     A          A          A          A          A   
    1  O  1  S   -0.001884   0.000139   0.004958  -0.020854   0.001408
    2  O  1  S   -0.013723  -0.006154  -0.009056  -0.398041   0.033956
    3  O  1  X    0.038061   0.072865  -0.128011   0.008174  -0.229098
    4  O  1  Y    0.138311  -0.144730  -0.080067  -0.077901   0.367639
    5  O  1  Z    0.060093   0.297089  -0.055682  -0.109550  -0.745211
    6  O  1  S   -0.115728  -0.010252  -0.323968   1.269800  -0.091816
    7  O  1  X   -0.119169  -0.050396   0.207596   0.174218   0.319881
    8  O  1  Y   -0.222848   0.128362   0.053241   0.434132  -0.552104
    9  O  1  Z   -0.077935  -0.271260   0.014338   0.250474   1.061327
   10  O  1 XX   -0.017570  -0.010349   0.003127  -0.076901  -0.005677
   11  O  1 YY   -0.041153  -0.018206  -0.005806  -0.078725   0.036038
   12  O  1 ZZ    0.001348   0.022307   0.003229  -0.184062  -0.003952
   13  O  1 XY    0.020376   0.015074   0.004849   0.019904  -0.001679
   14  O  1 XZ    0.024340  -0.013392   0.006074  -0.042388  -0.022865
   15  O  1 YZ   -0.042179   0.010426  -0.013029   0.067056  -0.036707
   16  C  2  S    0.039251   0.000276   0.007435  -0.073833   0.004608
   17  C  2  S   -1.243514   0.002947   0.056230  -1.121555   0.065260
   18  C  2  X   -0.295172  -0.078036  -0.260991  -0.155406   0.034309
   19  C  2  Y   -0.272627   0.111050   0.199984   0.124727  -0.045679
   20  C  2  Z   -0.052652  -0.137210   0.197309   0.129889   0.055260
   21  C  2  S    2.355032   0.075830   0.569192   4.294061  -0.274237
   22  C  2  X    0.701577   0.163981  -0.065115  -0.231484   0.053800
   23  C  2  Y    0.589744  -0.366842  -0.517115  -0.985024  -0.006969
   24  C  2  Z    0.086321   0.486501  -0.318968  -0.373196   0.164182
   25  C  2 XX   -0.116975   0.016935   0.033289   0.030140   0.041333
   26  C  2 YY   -0.023383  -0.032369   0.060579  -0.083081   0.035416
   27  C  2 ZZ    0.066117   0.019532  -0.050019  -0.112197  -0.067766
   28  C  2 XY   -0.116691   0.000678  -0.005427   0.043583  -0.055908
   29  C  2 XZ    0.011016   0.023719  -0.054159  -0.013281   0.080044
   30  C  2 YZ   -0.034772   0.045605   0.103892  -0.018606  -0.013635
   31  C  3  S   -0.001641   0.002700   0.025609   0.001839   0.000781
   32  C  3  S   -0.261163   0.026950   0.270279   0.535208  -0.036983
   33  C  3  X   -0.050921   0.026808   0.061181   0.020202   0.054122
   34  C  3  Y    0.008668  -0.013389   0.163006  -0.003845  -0.086953
   35  C  3  Z    0.016929   0.066523   0.049753   0.003503   0.180513
   36  C  3  S    1.066981  -0.050846  -0.355952  -3.853158   0.277040
   37  C  3  X    0.184589  -0.234169  -0.825844  -0.835759  -0.207334
   38  C  3  Y    0.160156   0.126042  -0.743498  -0.700518   0.443432
   39  C  3  Z    0.030189  -0.377521  -0.040076  -0.141398  -0.778264
   40  C  3 XX   -0.058638   0.011472   0.134404   0.059848  -0.016193
   41  C  3 YY    0.045047   0.052317   0.012327  -0.063094  -0.027807
   42  C  3 ZZ    0.024237  -0.047560   0.004026  -0.038762   0.047961
   43  C  3 XY   -0.066475  -0.022087  -0.045179   0.093132   0.012984
   44  C  3 XZ   -0.007599  -0.019649  -0.090916   0.021189  -0.011468
   45  C  3 YZ    0.042144  -0.041221   0.052598  -0.049909   0.036251
   46  O  4  S    0.008145  -0.001102  -0.011666  -0.022810   0.002132
   47  O  4  S    0.059203  -0.075279  -0.669874  -0.464075   0.040617
   48  O  4  X    0.030533  -0.176210   0.545379  -0.441297  -0.058933
   49  O  4  Y   -0.118393   0.336032  -0.201465  -0.227206   0.160988
   50  O  4  Z   -0.063595  -0.781432  -0.158587   0.001005  -0.297626
   51  O  4  S   -0.327340   0.145966   1.448497   1.325964  -0.124314
   52  O  4  X   -0.237017   0.210591  -0.795152   1.326031   0.041759
   53  O  4  Y    0.124641  -0.409129   0.438422   0.456924  -0.276514
   54  O  4  Z    0.127683   1.010949   0.314174  -0.144984   0.510936
   55  O  4 XX    0.040733  -0.042100  -0.172045  -0.214906  -0.001346
   56  O  4 YY   -0.020377  -0.033748  -0.167274  -0.045007   0.024625
   57  O  4 ZZ    0.028003   0.005480  -0.286865  -0.205841   0.017667
   58  O  4 XY    0.001958   0.036960   0.104265  -0.003461   0.009492
   59  O  4 XZ    0.001029  -0.034014   0.012832  -0.020786  -0.037531
   60  O  4 YZ   -0.033830   0.009910   0.030812   0.116019  -0.038099
   61  H  5  S   -0.054839   0.036066   0.326569   0.300097  -0.030402
   62  H  5  S   -0.005373  -0.119996  -1.080465   0.285493  -0.022078
   63  H  5  X    0.001343  -0.009223  -0.101708   0.139769  -0.003883
   64  H  5  Y    0.019377  -0.014055  -0.110127   0.009769  -0.011033
   65  H  5  Z    0.008788   0.002748  -0.021198  -0.036039   0.027441
   66  H  6  S    0.519110  -0.084071  -0.087789  -0.182387   0.124769
   67  H  6  S   -1.159067   0.490849   0.302939  -0.289664  -0.101655
   68  H  6  X   -0.044667  -0.001579   0.013966   0.033718  -0.058687
   69  H  6  Y    0.074947  -0.018242   0.007928  -0.008000   0.005507
   70  H  6  Z   -0.061046   0.012858   0.041739  -0.022650   0.006492
   71  H  7  S    0.516092   0.069838  -0.071207  -0.241545  -0.087734
   72  H  7  S   -1.144262  -0.397647   0.379122  -0.233814   0.131755
   73  H  7  X    0.001891   0.011950  -0.003688   0.050695   0.051495
   74  H  7  Y   -0.014536   0.009758   0.044952  -0.012960   0.007795
   75  H  7  Z    0.104748   0.013694  -0.019935  -0.018600  -0.024503
   76  H  8  S    0.414418   0.032470   0.369496  -0.330531   0.013528
   77  H  8  S   -0.869479  -0.087588  -0.650329  -0.995123   0.073324
   78  H  8  X    0.039430   0.007101   0.036309   0.033171   0.011867
   79  H  8  Y   -0.058471  -0.009177  -0.044332  -0.008492  -0.023215
   80  H  8  Z   -0.041593   0.004391  -0.037090  -0.003031   0.051285

                     41         42         43         44         45
                    1.3465     1.5634     1.5777     1.6514     1.7136
                     A          A          A          A          A   
    1  O  1  S   -0.002373  -0.000809  -0.020007   0.000026   0.009023
    2  O  1  S   -0.020889   0.006325  -0.099713   0.012821   0.363960
    3  O  1  X   -0.784799   0.025525   0.041644   0.042346   0.219818
    4  O  1  Y   -0.002942  -0.019442   0.150789  -0.037113   0.179510
    5  O  1  Z    0.233178   0.081322   0.060535   0.099319   0.002469
    6  O  1  S    0.138720   0.029504   0.887497  -0.017011  -0.839721
    7  O  1  X    1.322332  -0.088021   0.010829   0.010042  -0.692113
    8  O  1  Y    0.057732   0.129667   0.040689  -0.078554  -0.389742
    9  O  1  Z   -0.372503  -0.308119   0.030837   0.137549   0.031418
   10  O  1 XX   -0.010834  -0.047987   0.102768  -0.060681   0.104904
   11  O  1 YY   -0.013777  -0.080077  -0.059114   0.186061   0.086936
   12  O  1 ZZ   -0.002036   0.128558  -0.176904  -0.118198   0.038893
   13  O  1 XY   -0.090050   0.082658   0.006005  -0.008296   0.055184
   14  O  1 XZ   -0.050670  -0.091987  -0.094220  -0.146596  -0.012311
   15  O  1 YZ    0.036525   0.067087   0.077229  -0.191595   0.044157
   16  C  2  S    0.029922  -0.008417  -0.090494   0.002103   0.063119
   17  C  2  S    0.043911  -0.115547  -1.231420   0.022754   0.704698
   18  C  2  X   -0.073897   0.045192   0.197033  -0.011581  -0.081307
   19  C  2  Y   -0.034796  -0.050328   0.050409   0.020228   0.064227
   20  C  2  Z    0.009986   0.098511  -0.047435  -0.027430   0.056122
   21  C  2  S    0.498814   0.339811   3.557236  -0.104565  -2.850930
   22  C  2  X   -0.074054  -0.126670  -0.658098   0.101715   0.721238
   23  C  2  Y   -0.296896   0.085862  -0.337161  -0.120883   0.283217
   24  C  2  Z   -0.142980  -0.214458   0.104760   0.212492  -0.107351
   25  C  2 XX    0.051256   0.219921  -0.092198  -0.032470  -0.160661
   26  C  2 YY    0.032046  -0.017191  -0.001144  -0.025831   0.272874
   27  C  2 ZZ   -0.012729  -0.220660  -0.097001   0.060904  -0.009594
   28  C  2 XY    0.022603  -0.195605   0.063168   0.039283   0.050140
   29  C  2 XZ   -0.021092   0.398986  -0.037363  -0.036032   0.026417
   30  C  2 YZ    0.033212   0.090548   0.061836   0.036317   0.217890
   31  C  3  S    0.003431   0.003124   0.030357  -0.000776  -0.017530
   32  C  3  S    0.127107   0.013582   0.156514  -0.012034  -0.219552
   33  C  3  X    0.241247  -0.025252   0.114998  -0.000792  -0.059115
   34  C  3  Y    0.025608   0.054565   0.044241  -0.005958  -0.014114
   35  C  3  Z   -0.060855  -0.115115  -0.010949   0.008284   0.014037
   36  C  3  S   -0.789001  -0.163509  -2.287273   0.016293   0.642351
   37  C  3  X   -1.044463   0.065898  -0.418866   0.017235   2.033731
   38  C  3  Y   -0.171885  -0.188186   0.121282   0.106105  -0.056349
   39  C  3  Z    0.244614   0.415266   0.161420  -0.210187  -0.649745
   40  C  3 XX    0.015045  -0.199830   0.043657  -0.126563  -0.073153
   41  C  3 YY    0.016201   0.177808   0.005575  -0.285956   0.052954
   42  C  3 ZZ   -0.035029   0.021700  -0.063767   0.410145  -0.017635
   43  C  3 XY    0.169347   0.104551  -0.036140   0.219516   0.039289
   44  C  3 XZ    0.069584  -0.374374  -0.016641  -0.159912   0.033723
   45  C  3 YZ   -0.042583  -0.213547   0.095858   0.243897  -0.018358
   46  O  4  S   -0.017559  -0.003594  -0.049403  -0.002370  -0.057763
   47  O  4  S   -0.102970  -0.042000  -0.577097  -0.043745  -1.030230
   48  O  4  X   -0.112497   0.037999   0.250359  -0.042960  -0.331846
   49  O  4  Y    0.076462   0.008397   0.368367   0.046209   0.062631
   50  O  4  Z    0.074008   0.057927   0.096102  -0.085076   0.135674
   51  O  4  S    0.047408   0.127195   1.808440   0.114484   2.876895
   52  O  4  X    0.347555  -0.146245  -0.816095   0.061025   0.922092
   53  O  4  Y   -0.129195   0.012032  -1.096257  -0.059129  -0.458669
   54  O  4  Z   -0.173847  -0.237766  -0.248450   0.060387  -0.506696
   55  O  4 XX   -0.086967   0.023983  -0.159817   0.199462  -0.387954
   56  O  4 YY   -0.061388   0.105911  -0.263748  -0.021995  -0.301171
   57  O  4 ZZ    0.022660  -0.164335  -0.060215  -0.212952  -0.125464
   58  O  4 XY   -0.030246  -0.082451  -0.057947  -0.188004   0.000740
   59  O  4 XZ    0.037355   0.033186   0.011254   0.376307   0.092930
   60  O  4 YZ   -0.056297  -0.127469  -0.081705   0.061095  -0.166682
   61  H  5  S   -0.151128  -0.056137  -0.632988  -0.000981  -0.006898
   62  H  5  S    0.211116  -0.055370  -0.625424   0.002981   0.112060
   63  H  5  X    0.024959  -0.008544  -0.074143  -0.049639   0.042494
   64  H  5  Y    0.020707  -0.000780  -0.035141   0.079605   0.001407
   65  H  5  Z    0.001928  -0.000427   0.004313  -0.169643   0.006929
   66  H  6  S    0.127128   0.039660  -0.328356   0.048786   0.251883
   67  H  6  S    0.048111  -0.187050  -0.383487   0.153260   0.271992
   68  H  6  X    0.012725  -0.149126   0.002783   0.023600   0.115047
   69  H  6  Y    0.028803   0.024872   0.010661   0.005938   0.065915
   70  H  6  Z   -0.001100   0.049594   0.035989   0.005860   0.084181
   71  H  7  S    0.137950  -0.092979  -0.334793  -0.025383   0.255077
   72  H  7  S    0.065477   0.095730  -0.424384  -0.124460   0.281743
   73  H  7  X    0.016606   0.153189  -0.030874  -0.015467   0.051112
   74  H  7  Y    0.024724  -0.010021   0.036862  -0.004632   0.120592
   75  H  7  Z    0.016470  -0.066058   0.000787   0.004613  -0.029534
   76  H  8  S    0.181019  -0.031307  -0.315257  -0.000070   0.138406
   77  H  8  S   -0.307328  -0.025527  -0.301742  -0.006024   0.057503
   78  H  8  X    0.010399   0.041807  -0.032323  -0.005772  -0.148720
   79  H  8  Y   -0.009849  -0.070789   0.001987  -0.008170  -0.179991
   80  H  8  Z   -0.011459   0.149613  -0.003447  -0.001190  -0.059979

                     46         47         48         49         50
                    1.7976     1.8447     2.0000     2.0148     2.0337
                     A          A          A          A          A   
    1  O  1  S   -0.093204   0.001490   0.003712   0.019005   0.038063
    2  O  1  S   -1.538183   0.029029   0.333837   0.469226   0.487678
    3  O  1  X    0.073819   0.010725   0.088239   0.108667  -0.044697
    4  O  1  Y   -0.126256  -0.018949   0.215296   0.052875  -0.053825
[...]
                D/DZ    -0.053345510   -0.094998084    0.407754032

          --------------------------------------------------------
          NORMAL COORDINATE ANALYSIS IN THE HARMONIC APPROXIMATION
          --------------------------------------------------------

          ATOMIC WEIGHTS (AMU)

    1     O                15.99491
    2     C                12.00000
    3     C                12.00000
    4     O                15.99491
    5     H                 1.00782
    6     H                 1.00782
    7     H                 1.00782
    8     H                 1.00782

 MODES 2 TO 7 ARE TAKEN AS ROTATIONS AND TRANSLATIONS.

 ANALYZING SYMMETRY OF NORMAL MODES...

     FREQUENCIES IN CM**-1, IR INTENSITIES IN DEBYE**2/AMU-ANGSTROM**2,
     REDUCED MASSES IN AMU.

                          1           2           3           4           5
       FREQUENCY:       107.63 I      4.44        0.79        0.00        0.17  
        SYMMETRY:         A           A           A           A           A   
    REDUCED MASS:      1.07741     6.04483     4.30029     7.44664     8.40872
    IR INTENSITY:      0.03689     0.07070     0.02899     0.00001     0.00158

  1   O            X -0.01597070 -0.07757852  0.11521020  0.00980481  0.11240598
                   Y  0.03204782  0.14836681  0.06715794  0.09069271 -0.06469682
                   Z -0.02050797 -0.08527334 -0.02563957 -0.08989691 -0.07149136
  2   C            X -0.00222403  0.04940567 -0.01488278  0.01141538  0.08091962
                   Y  0.00443180 -0.07627374  0.07990457  0.09088477 -0.05983689
                   Z -0.00259621  0.03626690  0.16289596 -0.09273445 -0.02841697
  3   C            X -0.00708750  0.00260057  0.02043581  0.01112150  0.08874408
                   Y  0.01410229  0.01356547  0.03711599  0.09109146 -0.06895321
                   Z -0.00899218 -0.00321070  0.02971726 -0.09065086 -0.06028069
  4   O            X  0.01879945  0.06046461 -0.06606402  0.01250088  0.06624549
                   Y -0.03763788 -0.07360761 -0.03917572  0.09177619 -0.08252172
                   Z  0.02391012  0.06366642 -0.02178670 -0.08970444 -0.07514867
  5   H            X  0.03153718  0.02626840 -0.03746263  0.01221903  0.07279848
                   Y -0.06288099 -0.00950522 -0.06200492  0.09186659 -0.08755913
                   Z  0.03989367  0.03365802 -0.10511321 -0.08841082 -0.09492014
  6   H            X  0.27888593  0.04862980  0.02833172  0.01041462  0.09376522
                   Y -0.41965779  0.03033729  0.12443901  0.09039625 -0.05249300
                   Z -0.26664761  0.11324137  0.20097668 -0.09322406 -0.02135775
  7   H            X -0.20222856  0.12199271 -0.10509120  0.01269942  0.05821076
                   Y  0.40100481 -0.19609105  0.04048814  0.09135125 -0.06606181
                   Z -0.25534575  0.11192715  0.19436743 -0.09311949 -0.02295919
  8   H            X -0.04186682  0.00729081  0.01232089  0.01125837  0.08659591
                   Y -0.05026425 -0.12149920  0.10968272  0.09071754 -0.05367516
                   Z  0.56659758 -0.09233913  0.19049286 -0.09338657 -0.01754160

 TRANS. SAYVETZ    X  0.00035390  0.55611884  0.75002646  0.67417613  5.20728553
                   Y  0.00016711  0.14418720  2.06608835  5.46947094 -4.16205032
                   Z  0.00051554  0.21886386  2.03726525 -5.44435272 -3.56787138
               TOTAL  0.00064727  0.61478411  2.99695019  7.74665104  7.56096500

   ROT. SAYVETZ    X -0.02259830 10.42173464  7.24718743 -0.09162113  1.42564896
                   Y -0.02619958  3.84316159-13.27235846  0.20705343 -3.32323493
                   Z  0.02245668 -5.96757706  7.23213121 -0.06914388  1.59174275
               TOTAL  0.04124807 12.60929895 16.76248628  0.23674127  3.95095056

                          6           7           8           9          10
       FREQUENCY:         0.42        6.04      459.84      590.87      634.45  
        SYMMETRY:         A           A           A           A           A   
    REDUCED MASS:      7.55782     3.30537     2.99705     1.45798     4.11665
    IR INTENSITY:      0.00405     0.00021     0.09276     0.76257     1.39215

  1   O            X  0.06499055 -0.01000272 -0.08401337 -0.01911039  0.12231539
                   Y  0.02539553  0.00377589 -0.06446326  0.03814243  0.00784448
                   Z  0.08885868  0.00517429 -0.03465170 -0.02441526 -0.08413441
  2   C            X  0.09817404  0.07202145 -0.04445448 -0.00357353 -0.12044529
                   Y  0.04243109 -0.13797412  0.04005775  0.00680255 -0.06545291
                   Z  0.01155470  0.07887358  0.09775760 -0.00438167 -0.00741825
  3   C            X  0.09140036  0.00008410  0.01278291  0.06134378 -0.05624098
                   Y  0.04665247  0.00244930 -0.04389271 -0.12185571 -0.02764104
                   Z  0.06306636  0.00292169 -0.07882565  0.07782399  0.00085288
  4   O            X  0.11828332 -0.05251120  0.11685962  0.00234204  0.03633844
                   Y  0.07704429  0.12811350  0.04475071 -0.00451463  0.06692109
                   Z  0.07750544 -0.06875805 -0.02208412  0.00297123  0.07606191
  5   H            X  0.11212583 -0.09589407  0.06169011 -0.25711469 -0.05784309
                   Y  0.07780118  0.21134053  0.09991398  0.51056379  0.16010102
                   Z  0.11008871 -0.11353155  0.10776947 -0.32583735  0.29761215
  6   H            X  0.07968498  0.20906396  0.04944871 -0.28239504 -0.14126498
                   Y  0.01953186 -0.18137894  0.15740696 -0.06239193 -0.09681354
                   Z -0.00751928  0.06617850  0.19552785 -0.09631704 -0.03204217
  7   H            X  0.12395778  0.06845138 -0.30981576 -0.07829887 -0.07035224
                   Y  0.06505171 -0.11248188 -0.04728838  0.15589299 -0.05048568
                   Z -0.00500729  0.06209125  0.17022618 -0.09943228 -0.02328788
  8   H            X  0.09405160 -0.00749825  0.05447464  0.19606689 -0.14472646
                   Y  0.03789229 -0.22673322  0.14846389  0.23215391 -0.09092739
                   Z  0.00992842  0.16627171  0.20148398 -0.01251287 -0.03599596

 TRANS. SAYVETZ    X  5.61936896  0.04084763 -0.00001662 -0.00000698 -0.00000934
                   Y  2.90936271  0.17158774 -0.00001816 -0.00000219  0.00000429
                   Z  3.66476339  0.14695301 -0.00001147  0.00003361 -0.00000310
               TOTAL  7.31246809  0.22957802  0.00002716  0.00003440  0.00001073

   ROT. SAYVETZ    X -3.28874308 -2.75729559 -0.00027680 -0.00052232 -0.00027175
                   Y  4.49564620 -6.85173818  0.00189118  0.00017246  0.00059397
                   Z -1.75825566-11.44184477 -0.00051904  0.00092002 -0.00050099
               TOTAL  5.84107257 13.61854643  0.00198055  0.00107191  0.00082319

                         11          12          13          14          15
       FREQUENCY:       749.00      931.97     1120.45     1176.37     1345.81  
        SYMMETRY:         A           A           A           A           A   
    REDUCED MASS:      1.60699     3.56461     1.50966     1.81145     1.91666
    IR INTENSITY:      3.46264     0.05770     0.93186     0.33022     6.22447

  1   O            X  0.02375519 -0.00241246 -0.02353254 -0.01114767  0.01823553
                   Y -0.04710295 -0.05317151 -0.02909236  0.02215393  0.04566824
                   Z  0.03005395 -0.08137920 -0.02695807 -0.01413193  0.05711727
  2   C            X -0.01041674  0.14040193 -0.00001690 -0.04869055  0.02398570
                   Y  0.02068004  0.06508319  0.07404251  0.09655213 -0.01277920
                   Z -0.01323359 -0.00889386  0.11597755 -0.06165926 -0.03889259
  3   C            X -0.05211401 -0.05587781 -0.04463252  0.05934675 -0.08296117
                   Y  0.10338955 -0.05135908 -0.01671739 -0.11785953 -0.00762514
                   Z -0.06605271 -0.03617476  0.00895046  0.07530190  0.05346483
  4   O            X  0.03413292 -0.08128902  0.04305980 -0.00862802  0.03377617
                   Y -0.06778299  0.01847329 -0.01015732  0.01719179 -0.05552678
                   Z  0.04334299  0.09298921 -0.04984810 -0.01102321 -0.11356118
  5   H            X -0.26748006 -0.15793223 -0.03061666 -0.00668614 -0.24269490
                   Y  0.53102650  0.09326285  0.06399840  0.01330796  0.23561241
                   Z -0.33903875  0.27068148  0.12423155 -0.00844908  0.56025098
  6   H            X  0.22563894  0.19060153 -0.13950784  0.45884834  0.07655114
                   Y  0.05812039  0.12267904 -0.24622950  0.09806025  0.12649162
                   Z  0.04841099  0.03522031 -0.14020172  0.02211950  0.06954486
  7   H            X  0.04055097  0.09604800  0.58465736  0.10384600 -0.06046252
                   Y -0.08109198  0.05355285  0.26504014 -0.20695106 -0.03688145
                   Z  0.05165301  0.00803857 -0.04596688  0.13180701 -0.01040301
  8   H            X -0.17288368  0.19327392 -0.19280808 -0.36903313  0.10335227
                   Y -0.16202794  0.11777225 -0.14244676 -0.27515533  0.07418784
                   Z  0.01814918  0.03842113 -0.20659801  0.09131155  0.10289830

 TRANS. SAYVETZ    X  0.00000930  0.00000257  0.00000358  0.00000209 -0.00000170
                   Y -0.00002059 -0.00000819  0.00000190  0.00000321 -0.00000272
                   Z -0.00001168 -0.00000364 -0.00000810 -0.00000065 -0.00000537
               TOTAL  0.00002544  0.00000932  0.00000905  0.00000389  0.00000625

   ROT. SAYVETZ    X  0.00000891 -0.00006632  0.00040226 -0.00067637 -0.00007675
                   Y -0.00028170  0.00015491 -0.00059983 -0.00041483  0.00005902
                   Z -0.00063826 -0.00023916  0.00020162 -0.00030073 -0.00006680
               TOTAL  0.00069772  0.00029256  0.00074984  0.00084853  0.00011763

                         16          17          18          19          20
       FREQUENCY:      1480.02     1549.19     1606.00     1611.83     2032.26  
        SYMMETRY:         A           A           A           A           A   
    REDUCED MASS:      1.81314     1.39552     1.04578     1.21041     9.92960
    IR INTENSITY:      1.19784     1.72839     0.13439     0.58016    10.18554

  1   O            X -0.01888703 -0.00465340 -0.00177004 -0.01130345 -0.03799163
                   Y  0.00777463  0.01164279  0.00347558 -0.00328017 -0.08683433
                   Z  0.02706556  0.02189800 -0.00223966  0.00377970 -0.10598610
  2   C            X  0.02168613 -0.11337289  0.02020383 -0.04805466 -0.01437283
                   Y  0.02561742 -0.04125957 -0.04007459 -0.04496207 -0.01493269
                   Z  0.02296585  0.02491055  0.02555196 -0.03257893 -0.01204469
  3   C            X  0.15421580  0.07475769  0.00964411  0.08041515  0.07236845
                   Y  0.02140461  0.00599270 -0.01903912  0.01109535  0.14233487
                   Z -0.08809757 -0.04956741  0.01215464 -0.04608602  0.16576248
  4   O            X -0.05662203 -0.02648222 -0.00064869 -0.02245276 -0.00248343
                   Y -0.02253002 -0.00743931  0.00126451 -0.00341289 -0.01235013
                   Z  0.00937716  0.00923255 -0.00080310  0.01236800 -0.01737555
  5   H            X -0.21091800 -0.07509917  0.00033927 -0.05550038 -0.05654811
                   Y  0.14575966  0.04812770 -0.00070961  0.03347827  0.04730626
                   Z  0.39452230  0.13456248  0.00051419  0.09619970  0.11864274
  6   H            X -0.22857018  0.53102595  0.15143570 -0.23945693  0.03844445
                   Y -0.17882256 -0.13806967  0.33554645  0.37175308  0.00251155
                   Z -0.15553279  0.03409069  0.30163248  0.25076874  0.01567696
  7   H            X -0.24939556  0.22646388 -0.27657934  0.48294468 -0.05230209
                   Y -0.07100502  0.06626764  0.54867119  0.13329427 -0.02760740
                   Z  0.08625210 -0.07504522 -0.34966143 -0.17279617 -0.00187708
  8   H            X -0.20716725  0.27153700 -0.19220138 -0.03756367  0.02223388
                   Y -0.22163511  0.37687892 -0.25487955 -0.02905654  0.03496145
                   Z -0.12809721 -0.29408391 -0.35316001  0.50620548 -0.00489269

 TRANS. SAYVETZ    X  0.00000001 -0.00000184  0.00000146 -0.00000087  0.00000379
                   Y  0.00000153  0.00000029  0.00000020  0.00000008 -0.00000117
                   Z  0.00000450  0.00000327  0.00000054  0.00000334  0.00000289
               TOTAL  0.00000475  0.00000376  0.00000157  0.00000345  0.00000491

   ROT. SAYVETZ    X -0.00000801  0.00020835  0.00067616  0.00015707 -0.00005959
                   Y  0.00019246 -0.00025641  0.00022930 -0.00041530 -0.00001535
                   Z -0.00003346  0.00018501 -0.00007288  0.00031977  0.00003478
               TOTAL  0.00019551  0.00037866  0.00071769  0.00054717  0.00007068

                         21          22          23          24
       FREQUENCY:      3216.18     3286.65     3321.48     4125.78  
        SYMMETRY:         A           A           A           A   
    REDUCED MASS:      1.03711     1.10179     1.10575     1.06508
    IR INTENSITY:      0.06447     0.17690     0.29283     2.51223

  1   O            X  0.00021718  0.00006937 -0.00001217  0.00018049
                   Y  0.00030449 -0.00013807  0.00029570 -0.00033266
                   Z  0.00030533  0.00008696  0.00047161 -0.00066325
  2   C            X  0.04651290 -0.03444463  0.01735736  0.00047452
                   Y  0.01757705  0.06833421 -0.04098041  0.00027631
                   Z -0.00922036 -0.04361488 -0.07790735  0.00005755
  3   C            X -0.00277761 -0.00030197  0.00159613 -0.00165458
                   Y -0.00175794  0.00060240 -0.00031155 -0.00084344
                   Z -0.00056123 -0.00038202 -0.00174625 -0.00001562
  4   O            X  0.00019176 -0.00004802 -0.00031383 -0.05109017
                   Y  0.00011122  0.00009597  0.00013721 -0.03034668
                   Z  0.00002279 -0.00006123  0.00046264 -0.00722459
  5   H            X -0.00010880 -0.00043666 -0.00025299  0.82212877
                   Y -0.00102587  0.00086229  0.00060691  0.49379715
                   Z -0.00152153 -0.00055109  0.00115352  0.12481494
  6   H            X -0.06047477 -0.08104663 -0.02949034 -0.00048215
                   Y -0.35792902 -0.38464538 -0.18679182 -0.00007478
                   Z  0.49414162  0.54362434  0.24096976  0.00026925
  7   H            X -0.01627188 -0.00501684  0.03702284  0.00085964
                   Y -0.25186994  0.01036072  0.46500706  0.00000758
                   Z -0.38235422 -0.00587355  0.70035001 -0.00066693
  8   H            X -0.45038495  0.49988144 -0.22777984 -0.00048184
                   Y  0.41587599 -0.44672693  0.20596396 -0.00007297
                   Z  0.00099640 -0.01374585 -0.00888030  0.00026780

 TRANS. SAYVETZ    X -0.00000166 -0.00000176  0.00000172  0.00000015
                   Y  0.00000415 -0.00000116  0.00000028  0.00000099
                   Z  0.00000201 -0.00000123 -0.00000148 -0.00000130
               TOTAL  0.00000490  0.00000244  0.00000229  0.00000164

   ROT. SAYVETZ    X  0.00000055  0.00001008  0.00002377 -0.00000538
                   Y -0.00000075 -0.00001160 -0.00003037  0.00001170
                   Z -0.00003391  0.00001236  0.00000444 -0.00000752
               TOTAL  0.00003392  0.00001973  0.00003882  0.00001492

 REFERENCE ON SAYVETZ CONDITIONS - A. SAYVETZ, J.CHEM.PHYS., 7, 383-389(1939).

 NOTE - THE MODES J,K ARE ORTHONORMALIZED ACCORDING TO
 SUM ON I   M(I) * (X(I,J)*X(I,K) + Y(I,J)*Y(I,K) + Z(I,J)*Z(I,K)) = DELTA(J,K)

  MODE FREQ(CM**-1)  SYMMETRY  RED. MASS  IR INTENS.
     1     107.634    A        1.077410    0.036887
     2       4.437    A        6.044834    0.070703
     3       0.788    A        4.300289    0.028986
     4       0.004    A        7.446643    0.000005
     5       0.169    A        8.408718    0.001576
     6       0.421    A        7.557823    0.004049
     7       6.036    A        3.305371    0.000212
     8     459.844    A        2.997049    0.092759
     9     590.871    A        1.457977    0.762565
    10     634.453    A        4.116652    1.392151
    11     749.003    A        1.606994    3.462643
    12     931.971    A        3.564609    0.057698
    13    1120.448    A        1.509661    0.931861
    14    1176.372    A        1.811449    0.330218
    15    1345.814    A        1.916661    6.224475
    16    1480.016    A        1.813144    1.197838
    17    1549.193    A        1.395521    1.728390
    18    1606.003    A        1.045777    0.134392
    19    1611.832    A        1.210407    0.580158
    20    2032.263    A        9.929601   10.185535
    21    3216.180    A        1.037111    0.064472
    22    3286.652    A        1.101794    0.176899
    23    3321.484    A        1.105752    0.292826
    24    4125.778    A        1.065077    2.512230

     -------------------------------
     THERMOCHEMISTRY AT T=  298.15 K
     -------------------------------

 USING IDEAL GAS, RIGID ROTOR, HARMONIC NORMAL MODE APPROXIMATIONS.
 P=  1.01325E+05 PASCAL.
 ALL FREQUENCIES ARE SCALED BY   1.00000
 THE MOMENTS OF INERTIA ARE (IN AMU*BOHR**2)
    153.46704   189.65287   332.10616
 THE ROTATIONAL SYMMETRY NUMBER IS  1.0
 THE ROTATIONAL CONSTANTS ARE (IN GHZ)
     11.74903     9.50731     5.42925
   1 IMAGINARY FREQUENCY VIBRATION(S) IS(ARE) EXCLUDED
     FROM THE FOLLOWING THERMOCHEMICAL ANALYSIS.
 THE HARMONIC ZERO POINT ENERGY IS (SCALED BY   1.000)
        0.066609 HARTREE/MOLECULE    14619.088394 CM**-1/MOLECULE 
       41.798113 KCAL/MOL              174.883305 KJ/MOL

               Q               LN Q
 ELEC.     1.00000E+00       0.000000
 TRANS.    1.82772E+07      16.721165
 ROT.      3.51939E+04      10.468627
 VIB.      1.31354E+00       0.272727
 TOT.      8.44930E+11      27.462520

              E         H         G         CV        CP        S
           KJ/MOL    KJ/MOL    KJ/MOL   J/MOL-K   J/MOL-K   J/MOL-K
 ELEC.      0.000     0.000     0.000     0.000     0.000     0.000
 TRANS.     3.718     6.197   -41.451    12.472    20.786   159.813
 ROT.       3.718     3.718   -25.951    12.472    12.472    99.512
 VIB.     176.909   176.909   174.207    22.648    22.648     9.062
 TOTAL    184.346   186.825   106.805    47.591    55.905   268.387
 VIB. THERMAL CORRECTION E(T)-E(0) = H(T)-H(0) =  2025.898 J/MOL

              E         H         G         CV        CP        S
         KCAL/MOL  KCAL/MOL  KCAL/MOL CAL/MOL-K CAL/MOL-K CAL/MOL-K
 ELEC.      0.000     0.000     0.000     0.000     0.000     0.000
 TRANS.     0.889     1.481    -9.907     2.981     4.968    38.196
 ROT.       0.889     0.889    -6.202     2.981     2.981    23.784
 VIB.      42.282    42.282    41.637     5.413     5.413     2.166
 TOTAL     44.060    44.652    25.527    11.375    13.362    64.146
 VIB. THERMAL CORRECTION E(T)-E(0) = H(T)-H(0) =   484.201 CAL/MOL
 ......END OF NORMAL COORDINATE ANALYSIS......
 CPU     0: STEP CPU TIME=     0.00 TOTAL CPU TIME=       28.2 (    0.5 MIN)
 TOTAL WALL CLOCK TIME=       28.2 SECONDS, CPU UTILIZATION IS 100.00%
                   994627  WORDS OF DYNAMIC MEMORY USED
 EXECUTION OF GAMESS TERMINATED NORMALLY Thu Dec 14 17:43:57 2017
 DDI: 263624 bytes (0.3 MB / 0 MWords) used by master data server.

 ----------------------------------------
 CPU timing information for all processes
 ========================================
 0: 21.122535 + 2.137213 = 23.259748
 1: 22.183342 + 2.043613 = 24.226955
 2: 19.640525 + 1.653610 = 21.294135
 3: 21.964940 + 2.090413 = 24.055353
 4: 11.107271 + 0.546003 = 11.653274
 5: 0.000000 + 0.000000 = 0.000000
 6: 0.015600 + 0.000000 = 0.015600
 7: 0.000000 + 0.031200 = 0.031200
 ----------------------------------------
           Disk usage (in bytes)       
 ========================================
 ----------------------------------------
            Local date and time          
 ========================================
14.12.2017 - 17:44:03.28                          
