          ******************************************************
          *         GAMESS VERSION =  1 MAY 2013 (R1)          *
          *             FROM IOWA STATE UNIVERSITY             *
          * M.W.SCHMIDT, K.K.BALDRIDGE, J.A.BOATZ, S.T.ELBERT, *
          *   M.S.GORDON, J.H.JENSEN, S.KOSEKI, N.MATSUNAGA,   *
          *          K.A.NGUYEN, S.J.SU, T.L.WINDUS,           *
          *       TOGETHER WITH M.DUPUIS, J.A.MONTGOMERY       *
          *         J.COMPUT.CHEM.  14, 1347-1363(1993)        *
          *************** 64 BIT WINDOWS VERSION ***************

  SINCE 1993, STUDENTS AND POSTDOCS WORKING AT IOWA STATE UNIVERSITY
  AND ALSO IN THEIR VARIOUS JOBS AFTER LEAVING ISU HAVE MADE IMPORTANT
  CONTRIBUTIONS TO THE CODE:
     IVANA ADAMOVIC, CHRISTINE AIKENS, YURI ALEXEEV, POOJA ARORA,
     ANDREY ASADCHEV, ROB BELL, PRADIPTA BANDYOPADHYAY, JONATHAN BENTZ,
     BRETT BODE, GALINA CHABAN, WEI CHEN, CHEOL HO CHOI, PAUL DAY,
     ALBERT DEFUSCO, TIM DUDLEY, DMITRI FEDOROV, GRAHAM FLETCHER,
     MARK FREITAG, KURT GLAESEMANN, DAN KEMP, GRANT MERRILL,
     NORIYUKI MINEZAWA, JONATHAN MULLIN, TAKESHI NAGATA,
     SEAN NEDD, HEATHER NETZLOFF, BOSILJKA NJEGIC, RYAN OLSON, MIKE PAK,
     JIM SHOEMAKER, LYUDMILA SLIPCHENKO, SAROM SOK, JIE SONG,
     TETSUYA TAKETSUGU, SIMON WEBB, SOOHAENG YOO, FEDERICO ZAHARIEV

  ADDITIONAL CODE HAS BEEN PROVIDED BY COLLABORATORS IN OTHER GROUPS:
     IOWA STATE UNIVERSITY:
          JOE IVANIC, LAIMUTIS BYTAUTAS, KLAUS RUEDENBERG
     UNIVERSITY OF TOKYO: KIMIHIKO HIRAO, TAKAHITO NAKAJIMA,
          TAKAO TSUNEDA, MUNEAKI KAMIYA, SUSUMU YANAGISAWA,
          KIYOSHI YAGI, MAHITO CHIBA, SEIKEN TOKURA, NAOAKI KAWAKAMI
     UNIVERSITY OF AARHUS: FRANK JENSEN
     UNIVERSITY OF IOWA: VISVALDAS KAIRYS, HUI LI
     NATIONAL INST. OF STANDARDS AND TECHNOLOGY: WALT STEVENS, DAVID GARMER
     UNIVERSITY OF PISA: BENEDETTA MENNUCCI, JACOPO TOMASI
     UNIVERSITY OF MEMPHIS: HENRY KURTZ, PRAKASHAN KORAMBATH
     UNIVERSITY OF ALBERTA: TOBY ZENG, MARIUSZ KLOBUKOWSKI
     UNIVERSITY OF NEW ENGLAND: MARK SPACKMAN
     MIE UNIVERSITY: HIROAKI UMEDA
     MICHIGAN STATE UNIVERSITY:
          KAROL KOWALSKI, MARTA WLOCH, JEFFREY GOUR, JESSE LUTZ,
          WEI LI, PIOTR PIECUCH
     UNIVERSITY OF SILESIA: MONIKA MUSIAL, STANISLAW KUCHARSKI
     FACULTES UNIVERSITAIRES NOTRE-DAME DE LA PAIX:
          OLIVIER QUINET, BENOIT CHAMPAGNE
     UNIVERSITY OF CALIFORNIA - SANTA BARBARA: BERNARD KIRTMAN
     INSTITUTE FOR MOLECULAR SCIENCE:
          KAZUYA ISHIMURA, MICHIO KATOUDA, AND SHIGERU NAGASE
     UNIVERSITY OF NOTRE DAME: DAN CHIPMAN
     KYUSHU UNIVERSITY:
          HARUYUKI NAKANO,
          FENG LONG GU, JACEK KORCHOWIEC, MARCIN MAKOWSKI, AND YURIKO AOKI,
          HIROTOSHI MORI AND EISAKU MIYOSHI
     PENNSYLVANIA STATE UNIVERSITY:
          TZVETELIN IORDANOV, CHET SWALINA, JONATHAN SKONE,
          SHARON HAMMES-SCHIFFER
     WASEDA UNIVERSITY:
          MASATO KOBAYASHI, TOMOKO AKAMA, TSUGUKI TOUMA,
          TAKESHI YOSHIKAWA, YASUHIRO IKABATA, HIROMI NAKAI
     NANJING UNIVERSITY: SHUHUA LI
     UNIVERSITY OF NEBRASKA:
          PEIFENG SU, DEJUN SI, NANDUN THELLAMUREGE, YALI WANG, HUI LI
     UNIVERSITY OF ZURICH:
          ROBERTO PEVERATI, KIM BALDRIDGE
     N. COPERNICUS UNIVERSITY AND JACKSON STATE UNIVERSITY:
          MARIA BARYSZ


 PARALLEL VERSION RUNNING ON     4 PROCESSORS IN     4 NODES.

 EXECUTION OF GAMESS BEGUN Thu Nov 23 17:41:20 2017

            ECHO OF THE FIRST FEW INPUT CARDS -
 INPUT CARD> $CONTRL SCFTYP=RHF RUNTYP=optimize $END                                        
 INPUT CARD> $BASIS  GBASIS=N31 NGAUSS=6 ndfunc=1 npfunc=1 $END                             
 INPUT CARD> $STATPT hssend=.T. $END                                                        
 INPUT CARD>                                                                                
 INPUT CARD> $DATA                                                     ! Paste geometry near
 INPUT CARD>  CO2                                                                           
 INPUT CARD> Cnv 4                                                                          
 INPUT CARD>                                                                                
 INPUT CARD> C   6    0.0    0.0   0.0                                                      
 INPUT CARD> O   8    0.0    0.0   1.0                                                      
 INPUT CARD> O   8    0.0    0.0  -1.0                                                      
 INPUT CARD> $END                                                                           
    1000000 WORDS OF MEMORY AVAILABLE

     BASIS OPTIONS
     -------------
     GBASIS=N31          IGAUSS=       6      POLAR=POPN31  
     NDFUNC=       1     NFFUNC=       0     DIFFSP=       F
     NPFUNC=       1      DIFFS=       F     BASNAM=        


     RUN TITLE
     ---------
   CO2                                                                           

 THE POINT GROUP OF THE MOLECULE IS CNV     
 THE ORDER OF THE PRINCIPAL AXIS IS     4

 ATOM      ATOMIC                      COORDINATES (BOHR)
           CHARGE         X                   Y                   Z
 C           6.0     0.0000000000        0.0000000000        0.0000000000
 O           8.0     0.0000000000        0.0000000000        1.8897259877
 O           8.0     0.0000000000        0.0000000000       -1.8897259877

          INTERNUCLEAR DISTANCES (ANGS.)
          ------------------------------

                1 C          2 O          3 O     

   1 C       0.0000000    1.0000000 *  1.0000000 *
   2 O       1.0000000 *  0.0000000    2.0000000 *
   3 O       1.0000000 *  2.0000000 *  0.0000000  

  * ... LESS THAN  3.000


     ATOMIC BASIS SET
     ----------------
 THE CONTRACTED PRIMITIVE FUNCTIONS HAVE BEEN UNNORMALIZED
 THE CONTRACTED BASIS FUNCTIONS ARE NOW NORMALIZED TO UNITY

  SHELL TYPE  PRIMITIVE        EXPONENT          CONTRACTION COEFFICIENT(S)

 C         

      1   S       1          3047.5248800    0.001834737132
      1   S       2           457.3695180    0.014037322813
      1   S       3           103.9486850    0.068842622264
      1   S       4            29.2101553    0.232184443216
      1   S       5             9.2866630    0.467941348435
      1   S       6             3.1639270    0.362311985337

      2   L       7             7.8682723   -0.119332419775    0.068999066591
      2   L       8             1.8812885   -0.160854151696    0.316423960957
      2   L       9             0.5442493    1.143456437840    0.744308290898

      3   L      10             0.1687145    1.000000000000    1.000000000000

      4   D      11             0.8000000    1.000000000000

 O         

      5   S      12          5484.6716600    0.001831074430
      5   S      13           825.2349460    0.013950172200
      5   S      14           188.0469580    0.068445078098
      5   S      15            52.9645000    0.232714335992
      5   S      16            16.8975704    0.470192897984
      5   S      17             5.7996353    0.358520852987

      6   L      18            15.5396162   -0.110777549525    0.070874268231
      6   L      19             3.5999336   -0.148026262701    0.339752839147
      6   L      20             1.0137618    1.130767015354    0.727158577316

      7   L      21             0.2700058    1.000000000000    1.000000000000

      8   D      22             0.8000000    1.000000000000

 O         

      9   S      23          5484.6716600    0.001831074430
      9   S      24           825.2349460    0.013950172200
      9   S      25           188.0469580    0.068445078098
      9   S      26            52.9645000    0.232714335992
      9   S      27            16.8975704    0.470192897984
      9   S      28             5.7996353    0.358520852987

     10   L      29            15.5396162   -0.110777549525    0.070874268231
     10   L      30             3.5999336   -0.148026262701    0.339752839147
     10   L      31             1.0137618    1.130767015354    0.727158577316

     11   L      32             0.2700058    1.000000000000    1.000000000000

     12   D      33             0.8000000    1.000000000000

 TOTAL NUMBER OF BASIS SET SHELLS             =   12
 NUMBER OF CARTESIAN GAUSSIAN BASIS FUNCTIONS =   45
 NUMBER OF ELECTRONS                          =   22
 CHARGE OF MOLECULE                           =    0
 SPIN MULTIPLICITY                            =    1
 NUMBER OF OCCUPIED ORBITALS (ALPHA)          =   11
 NUMBER OF OCCUPIED ORBITALS (BETA )          =   11
 TOTAL NUMBER OF ATOMS                        =    3
 THE NUCLEAR REPULSION ENERGY IS       67.7346879027

 THIS MOLECULE IS RECOGNIZED AS BEING LINEAR,
 ORBITAL LZ DEGENERACY TOLERANCE ETOLLZ= 1.00E-06

     $NEO OPTIONS
     ------------
     NUNIQN=       0     BASNUC=DZSNB        NEOSCF=NONE    
     NEOCI =NONE         NUMULT=       2     NUCST =       1
     NAUXNB=       0     VNUCEX=       F     NUCOPT=       F
     NTAUXB=       0     NEOHSS=       F     HSSINI=READH   
     HSSUPD=POWELLUP     DIRNUC=       F     SYMNUC=       F
     QMTOLN= 0.0E+00     USRDEX=       F
     POSNEO=       F     POSPRP=       F
     NEONCI=       F     LOCORB=       0

     $CONTRL OPTIONS
     ---------------
 SCFTYP=RHF          RUNTYP=OPTIMIZE     EXETYP=RUN     
 MPLEVL=       0     CITYP =NONE         CCTYP =NONE         VBTYP =NONE    
 DFTTYP=NONE         TDDFT =NONE    
 MULT  =       1     ICHARG=       0     NZVAR =       0     COORD =UNIQUE  
 PP    =NONE         RELWFN=NONE         LOCAL =NONE         NUMGRD=       F
 ISPHER=      -1     NOSYM =       0     MAXIT =      30     UNITS =ANGS    
 PLTORB=       F     MOLPLT=       F     AIMPAC=       F     FRIEND=        
 NPRINT=       7     IREST =       0     GEOM  =INPUT   
 NORMF =       0     NORMP =       0     ITOL  =      20     ICUT  =       9
 INTTYP=BEST         GRDTYP=BEST         QMTTOL= 1.0E-06

     $SYSTEM OPTIONS
     ---------------
  REPLICATED MEMORY=     1000000 WORDS (ON EVERY NODE).
 DISTRIBUTED MEMDDI=           0 MILLION WORDS IN AGGREGATE,
 MEMDDI DISTRIBUTED OVER   4 PROCESSORS IS           0 WORDS/PROCESSOR.
 TOTAL MEMORY REQUESTED ON EACH PROCESSOR=     1000000 WORDS.
 TIMLIM=      525600.00 MINUTES, OR     365.0 DAYS.
 PARALL= T  BALTYP=  DLB     KDIAG=    0  COREFL= F
 MXSEQ2=     300 MXSEQ3=     150

          ----------------
          PROPERTIES INPUT
          ----------------

     MOMENTS            FIELD           POTENTIAL          DENSITY
 IEMOM =       1   IEFLD =       0   IEPOT =       0   IEDEN =       0
 WHERE =COMASS     WHERE =NUCLEI     WHERE =NUCLEI     WHERE =NUCLEI  
 OUTPUT=BOTH       OUTPUT=BOTH       OUTPUT=BOTH       OUTPUT=BOTH    
 IEMINT=       0   IEFINT=       0                     IEDINT=       0
                                                       MORB  =       0
          EXTRAPOLATION IN EFFECT
          DIIS IN EFFECT
 ORBITAL PRINTING OPTION: NPREO=     1    45     2     1

     -------------------------------
     INTEGRAL TRANSFORMATION OPTIONS
     -------------------------------
     NWORD  =            0
     CUTOFF = 1.0E-09     MPTRAN =       0
     DIRTRF =       F     AOINTS =DUP     

          ----------------------
          INTEGRAL INPUT OPTIONS
          ----------------------
 NOPK  =       1 NORDER=       0 SCHWRZ=       F

     ------------------------------------------
     THE POINT GROUP IS CNV, NAXIS= 4, ORDER= 8
     ------------------------------------------

     DIMENSIONS OF THE SYMMETRY SUBSPACES ARE
 A1  =   21     A2  =    0     B1  =    3     B2  =    3     E   =    9

 ..... DONE SETTING UP THE RUN .....
 CPU     0: STEP CPU TIME=     0.01 TOTAL CPU TIME=        0.0 (    0.0 MIN)
 TOTAL WALL CLOCK TIME=        0.0 SECONDS, CPU UTILIZATION IS 100.01%


          -----------------------------
          STATIONARY POINT LOCATION RUN
          -----------------------------

 OBTAINING INITIAL HESSIAN, HESS=GUESS   
 CARTESIAN COORDINATE OPTIMIZATION USING BADGER'S RULE FORCE CONSTANT GUESS

          PARAMETERS CONTROLLING GEOMETRY SEARCH ARE
          METHOD =QA                  UPHESS =BFGS    
          NNEG   =         0          NFRZ   =         0
          NSTEP  =        50          IFOLOW =         1
          HESS   =GUESS               RESTAR =         F
          IHREP  =         0          HSSEND =         T
          NPRT   =         0          NPUN   =         0
          OPTTOL = 1.000E-04          RMIN   = 1.500E-03
          RMAX   = 1.000E-01          RLIM   = 7.000E-02
          DXMAX  = 3.000E-01          PURIFY =         F
          MOVIE  =         F          TRUPD  =         T
          TRMAX  = 5.000E-01          TRMIN  = 5.000E-02
          ITBMAT =         5          STPT   =         F
          STSTEP = 1.000E-02          PROJCT=          T

 BEGINNING GEOMETRY SEARCH POINT NSERCH=   0 ...

 COORDINATES OF SYMMETRY UNIQUE ATOMS (ANGS)
   ATOM   CHARGE       X              Y              Z
 ------------------------------------------------------------
 C           6.0   0.0000000000   0.0000000000   0.0000000000
 O           8.0   0.0000000000   0.0000000000   1.0000000000
 O           8.0   0.0000000000   0.0000000000  -1.0000000000
 COORDINATES OF ALL ATOMS ARE (ANGS)
   ATOM   CHARGE       X              Y              Z
 ------------------------------------------------------------
 C           6.0   0.0000000000   0.0000000000   0.0000000000
 O           8.0   0.0000000000   0.0000000000   1.0000000000
 O           8.0   0.0000000000   0.0000000000  -1.0000000000

          ********************
          1 ELECTRON INTEGRALS
          ********************
 ...... END OF ONE-ELECTRON INTEGRALS ......
 CPU     0: STEP CPU TIME=     0.00 TOTAL CPU TIME=        0.0 (    0.0 MIN)
 TOTAL WALL CLOCK TIME=        0.0 SECONDS, CPU UTILIZATION IS 100.01%

          -------------
          GUESS OPTIONS
          -------------
          GUESS =HUCKEL            NORB  =       0          NORDER=       0
          MIX   =       F          PRTMO =       F          PUNMO =       F
          TOLZ  = 1.0E-08          TOLE  = 1.0E-05
          SYMDEN=       F          PURIFY=       F

 INITIAL GUESS ORBITALS GENERATED BY HUCKEL   ROUTINE.
 HUCKEL GUESS REQUIRES     18183 WORDS.

 SYMMETRIES FOR INITIAL GUESS ORBITALS FOLLOW.   BOTH SET(S).
    11 ORBITALS ARE OCCUPIED (    3 CORE ORBITALS).
     4=A1       5=A1       6=E        7=E        8=A1       9=E       10=E   
    11=A1      12=E       13=E       14=A1      15=A1      16=A1      17=A1  
    18=A1      19=A1      20=A1      21=A1  
 ...... END OF INITIAL ORBITAL SELECTION ......
 CPU     0: STEP CPU TIME=     0.00 TOTAL CPU TIME=        0.0 (    0.0 MIN)
 TOTAL WALL CLOCK TIME=        0.0 SECONDS, CPU UTILIZATION IS 100.01%

                    ----------------------
                    AO INTEGRAL TECHNOLOGY
                    ----------------------
     S,P,L SHELL ROTATED AXIS INTEGRALS, REPROGRAMMED BY
        KAZUYA ISHIMURA (IMS) AND JOSE SIERRA (SYNSTAR).
     S,P,D,L SHELL ROTATED AXIS INTEGRALS PROGRAMMED BY
        KAZUYA ISHIMURA (INSTITUTE FOR MOLECULAR SCIENCE).
     S,P,D,F,G SHELL TO TOTAL QUARTET ANGULAR MOMENTUM SUM 5,
        ERIC PROGRAM BY GRAHAM FLETCHER (ELORET AND NASA ADVANCED
        SUPERCOMPUTING DIVISION, AMES RESEARCH CENTER).
     S,P,D,F,G,L SHELL GENERAL RYS QUADRATURE PROGRAMMED BY
        MICHEL DUPUIS (PACIFIC NORTHWEST NATIONAL LABORATORY).

          --------------------
          2 ELECTRON INTEGRALS
          --------------------

 THE -PK- OPTION IS OFF, THE INTEGRALS ARE NOT IN SUPERMATRIX FORM.
 STORING   15000 INTEGRALS/RECORD ON DISK, USING 12 BYTES/INTEGRAL.
 TWO ELECTRON INTEGRAL EVALUATION REQUIRES   90474 WORDS OF MEMORY.
 II,JST,KST,LST =  1  1  1  1 NREC =         1 INTLOC =    1
 II,JST,KST,LST =  2  1  1  1 NREC =         1 INTLOC =    1
 II,JST,KST,LST =  3  1  1  1 NREC =         1 INTLOC =   32
 II,JST,KST,LST =  4  1  1  1 NREC =         1 INTLOC =   32
 II,JST,KST,LST =  5  1  1  1 NREC =         1 INTLOC =  314
 II,JST,KST,LST =  6  1  1  1 NREC =         1 INTLOC =  740
 II,JST,KST,LST =  7  1  1  1 NREC =         1 INTLOC = 2370
 II,JST,KST,LST =  8  1  1  1 NREC =         1 INTLOC = 5680
 II,JST,KST,LST =  9  1  1  1 NREC =         1 INTLOC =10985
 II,JST,KST,LST = 10  1  1  1 NREC =         1 INTLOC =12478
 II,JST,KST,LST = 11  1  1  1 NREC =         2 INTLOC = 4921
 II,JST,KST,LST = 12  1  1  1 NREC =         2 INTLOC =12245
 TOTAL NUMBER OF NONZERO TWO-ELECTRON INTEGRALS =              145501
         12 INTEGRAL RECORDS WERE STORED ON DISK FILE  8.
  ...... END OF TWO-ELECTRON INTEGRALS .....
 CPU     0: STEP CPU TIME=     0.04 TOTAL CPU TIME=        0.1 (    0.0 MIN)
 TOTAL WALL CLOCK TIME=        0.1 SECONDS, CPU UTILIZATION IS 100.00%

          --------------------------
                 RHF SCF CALCULATION
          --------------------------

     NUCLEAR ENERGY =        67.7346879027
     MAXIT =   30     NPUNCH=    2
     EXTRAP=T  DAMP=F  SHIFT=F  RSTRCT=F  DIIS=T  DEM=F  SOSCF=F
     DENSITY MATRIX CONV=  1.00E-05
     MEMORY REQUIRED FOR RHF ITERS=     45470 WORDS.

 ITER EX DEM     TOTAL ENERGY        E CHANGE  DENSITY CHANGE    DIIS ERROR
   1  0  0     -186.7707009719  -186.7707009719   0.295995450   0.969363468
          * * *   INITIATING DIIS PROCEDURE   * * *
   2  1  0     -187.4538887277    -0.6831877557   0.107503724   0.147894455
   3  2  0     -187.4861210971    -0.0322323694   0.039326785   0.072858794
   4  3  0     -187.4902691963    -0.0041480992   0.004852112   0.009487317
   5  4  0     -187.4904843704    -0.0002151741   0.002275274   0.003077003
   6  5  0     -187.4905009544    -0.0000165840   0.000447324   0.000516377
   7  6  0     -187.4905014543    -0.0000004999   0.000059284   0.000068464
   8  7  0     -187.4905014625    -0.0000000081   0.000008529   0.000006075
   9  8  0     -187.4905014625    -0.0000000001   0.000001200   0.000000663

          -----------------
          DENSITY CONVERGED
          -----------------
     TIME TO FORM FOCK OPERATORS=       0.0 SECONDS (       0.0 SEC/ITER)
     TIME TO SOLVE SCF EQUATIONS=       0.0 SECONDS (       0.0 SEC/ITER)

 FINAL RHF ENERGY IS     -187.4905014625 AFTER   9 ITERATIONS

 LZ VALUE ANALYSIS FOR THE MOS
 ----------------------------------------
 MO     1 (    1) HAS LZ(WEIGHT)= 0.00(100.0%) 
 MO     2 (    2) HAS LZ(WEIGHT)= 0.00(100.0%) 
 MO     3 (    3) HAS LZ(WEIGHT)= 0.00(100.0%) 
 MO     4 (    4) HAS LZ(WEIGHT)= 0.00(100.0%) 
 MO     5 (    5) HAS LZ(WEIGHT)= 0.00(100.0%) 
 MO     6 (    6) HAS LZ(WEIGHT)=-1.00( 50.0%)  1.00( 50.0%) 
 MO     7 (    6) HAS LZ(WEIGHT)=-1.00( 50.0%)  1.00( 50.0%) 
 MO     8 (    7) HAS LZ(WEIGHT)= 0.00(100.0%) 
 MO     9 (    8) HAS LZ(WEIGHT)= 0.00(100.0%) 
 MO    10 (    9) HAS LZ(WEIGHT)=-1.00( 50.0%)  1.00( 50.0%) 
 MO    11 (    9) HAS LZ(WEIGHT)=-1.00( 50.0%)  1.00( 50.0%) 
 MO    12 (   10) HAS LZ(WEIGHT)= 0.00(100.0%) 
 MO    13 (   11) HAS LZ(WEIGHT)=-1.00( 50.0%)  1.00( 50.0%) 
 MO    14 (   11) HAS LZ(WEIGHT)=-1.00( 50.0%)  1.00( 50.0%) 
 MO    15 (   12) HAS LZ(WEIGHT)= 0.00(100.0%) 
 MO    16 (   13) HAS LZ(WEIGHT)=-1.00( 50.0%)  1.00( 50.0%) 
 MO    17 (   13) HAS LZ(WEIGHT)=-1.00( 50.0%)  1.00( 50.0%) 
 MO    18 (   14) HAS LZ(WEIGHT)= 0.00(100.0%) 
 MO    19 (   15) HAS LZ(WEIGHT)= 0.00(100.0%) 
 MO    20 (   16) HAS LZ(WEIGHT)= 0.00(100.0%) 
 MO    21 (   17) HAS LZ(WEIGHT)=-1.00( 50.0%)  1.00( 50.0%) 
 MO    22 (   17) HAS LZ(WEIGHT)=-1.00( 50.0%)  1.00( 50.0%) 
 MO    23 (   18) HAS LZ(WEIGHT)=-1.00( 50.0%)  1.00( 50.0%) 
 MO    24 (   18) HAS LZ(WEIGHT)=-1.00( 50.0%)  1.00( 50.0%) 
 MO    25 (   19) HAS LZ(WEIGHT)=-2.00( 50.0%)  2.00( 50.0%) 
 MO    26 (   19) HAS LZ(WEIGHT)=-2.00( 50.0%)  2.00( 50.0%) 
 MO    27 (   20) HAS LZ(WEIGHT)= 0.00(100.0%) 
 MO    28 (   21) HAS LZ(WEIGHT)= 0.00(100.0%) 
 MO    29 (   22) HAS LZ(WEIGHT)=-1.00( 50.0%)  1.00( 50.0%) 
 MO    30 (   22) HAS LZ(WEIGHT)=-1.00( 50.0%)  1.00( 50.0%) 
 MO    31 (   23) HAS LZ(WEIGHT)=-2.00( 50.0%)  2.00( 50.0%) 
 MO    32 (   23) HAS LZ(WEIGHT)=-2.00( 50.0%)  2.00( 50.0%) 
 MO    33 (   24) HAS LZ(WEIGHT)= 0.00(100.0%) 
 MO    34 (   25) HAS LZ(WEIGHT)=-2.00( 50.0%)  2.00( 50.0%) 
 MO    35 (   25) HAS LZ(WEIGHT)=-2.00( 50.0%)  2.00( 50.0%) 
 MO    36 (   26) HAS LZ(WEIGHT)=-1.00( 50.0%)  1.00( 50.0%) 
 MO    37 (   26) HAS LZ(WEIGHT)=-1.00( 50.0%)  1.00( 50.0%) 
 MO    38 (   27) HAS LZ(WEIGHT)= 0.00(100.0%) 
 MO    39 (   28) HAS LZ(WEIGHT)=-1.00( 50.0%)  1.00( 50.0%) 
 MO    40 (   28) HAS LZ(WEIGHT)=-1.00( 50.0%)  1.00( 50.0%) 
 MO    41 (   29) HAS LZ(WEIGHT)= 0.00(100.0%) 
 MO    42 (   30) HAS LZ(WEIGHT)= 0.00(100.0%) 
 MO    43 (   31) HAS LZ(WEIGHT)= 0.00(100.0%) 
 MO    44 (   32) HAS LZ(WEIGHT)= 0.00(100.0%) 
 MO    45 (   33) HAS LZ(WEIGHT)= 0.00(100.0%) 

          ------------
          EIGENVECTORS
          ------------

                      1          2          3          4          5
                  -20.6180   -20.6180   -11.3919    -1.6234    -1.5746
                     A1         A1         A1         A1         A1  
    1  C  1  S    0.000000  -0.000484   0.994627  -0.193335   0.000000
    2  C  1  S    0.000000  -0.002568   0.031234   0.316327   0.000000
    3  C  1  X    0.000000   0.000000   0.000000   0.000000   0.000000
    4  C  1  Y    0.000000   0.000000   0.000000   0.000000   0.000000
    5  C  1  Z    0.001762   0.000000   0.000000   0.000000   0.399797
    6  C  1  S    0.000000  -0.003218   0.001015   0.012008   0.000000
    7  C  1  X    0.000000   0.000000   0.000000   0.000000   0.000000
    8  C  1  Y    0.000000   0.000000   0.000000   0.000000   0.000000
    9  C  1  Z    0.001830   0.000000   0.000000   0.000000   0.031563
   10  C  1 XX    0.000000   0.000496  -0.004746  -0.033064   0.000000
   11  C  1 YY    0.000000   0.000496  -0.004746  -0.033064   0.000000
   12  C  1 ZZ    0.000000  -0.004133   0.001080   0.042931   0.000000
   13  C  1 XY    0.000000   0.000000   0.000000   0.000000   0.000000
   14  C  1 XZ    0.000000   0.000000   0.000000   0.000000   0.000000
   15  C  1 YZ    0.000000   0.000000   0.000000   0.000000   0.000000
   16  O  2  S   -0.703151   0.703325  -0.001606  -0.138112  -0.148237
   17  O  2  S   -0.015268   0.016700  -0.000022   0.281447   0.313575
   18  O  2  X    0.000000   0.000000   0.000000   0.000000   0.000000
   19  O  2  Y    0.000000   0.000000   0.000000   0.000000   0.000000
   20  O  2  Z    0.001884  -0.003064  -0.000899  -0.134234  -0.145646
   21  O  2  S   -0.005615   0.005501  -0.003587   0.229401   0.158444
   22  O  2  X    0.000000   0.000000   0.000000   0.000000   0.000000
   23  O  2  Y    0.000000   0.000000   0.000000   0.000000   0.000000
   24  O  2  Z    0.000699  -0.001356   0.002382  -0.043339   0.004908
   25  O  2 XX    0.003283  -0.003280  -0.000284  -0.003658  -0.003626
   26  O  2 YY    0.003283  -0.003280  -0.000284  -0.003658  -0.003626
   27  O  2 ZZ    0.002204  -0.001539   0.000760   0.019762   0.019055
   28  O  2 XY    0.000000   0.000000   0.000000   0.000000   0.000000
   29  O  2 XZ    0.000000   0.000000   0.000000   0.000000   0.000000
   30  O  2 YZ    0.000000   0.000000   0.000000   0.000000   0.000000
   31  O  3  S    0.703151   0.703325  -0.001606  -0.138112   0.148237
   32  O  3  S    0.015268   0.016700  -0.000022   0.281447  -0.313575
   33  O  3  X    0.000000   0.000000   0.000000   0.000000   0.000000
   34  O  3  Y    0.000000   0.000000   0.000000   0.000000   0.000000
   35  O  3  Z    0.001884   0.003064   0.000899   0.134234  -0.145646
   36  O  3  S    0.005615   0.005501  -0.003587   0.229401  -0.158444
   37  O  3  X    0.000000   0.000000   0.000000   0.000000   0.000000
   38  O  3  Y    0.000000   0.000000   0.000000   0.000000   0.000000
   39  O  3  Z    0.000699   0.001356  -0.002382   0.043339   0.004908
   40  O  3 XX   -0.003283  -0.003280  -0.000284  -0.003658   0.003626
   41  O  3 YY   -0.003283  -0.003280  -0.000284  -0.003658   0.003626
   42  O  3 ZZ   -0.002204  -0.001539   0.000760   0.019762  -0.019055
   43  O  3 XY    0.000000   0.000000   0.000000   0.000000   0.000000
   44  O  3 XZ    0.000000   0.000000   0.000000   0.000000   0.000000
   45  O  3 YZ    0.000000   0.000000   0.000000   0.000000   0.000000

                      6          7          8          9         10
                   -0.7935    -0.7935    -0.7691    -0.7548    -0.5484
                     E          E          A1         A1         E   
    1  C  1  S    0.000000   0.000000   0.132799   0.000000   0.000000
    2  C  1  S    0.000000   0.000000  -0.262488   0.000000   0.000000
    3  C  1  X    0.387126   0.000000   0.000000   0.000000   0.000000
    4  C  1  Y    0.000000   0.387126   0.000000   0.000000   0.000000
    5  C  1  Z    0.000000   0.000000   0.000000  -0.337177   0.000000
    6  C  1  S    0.000000   0.000000  -0.055630   0.000000   0.000000
    7  C  1  X    0.081432   0.000000   0.000000   0.000000   0.000000
    8  C  1  Y    0.000000   0.081432   0.000000   0.000000   0.000000
    9  C  1  Z    0.000000   0.000000   0.000000  -0.000759   0.000000
   10  C  1 XX    0.000000   0.000000   0.013882   0.000000   0.000000
   11  C  1 YY    0.000000   0.000000   0.013882   0.000000   0.000000
   12  C  1 ZZ    0.000000   0.000000  -0.003532   0.000000   0.000000
   13  C  1 XY    0.000000   0.000000   0.000000   0.000000   0.000000
   14  C  1 XZ    0.000000   0.000000   0.000000   0.000000   0.085211
   15  C  1 YZ    0.000000   0.000000   0.000000   0.000000   0.000000
   16  O  2  S    0.000000   0.000000  -0.082056  -0.067115   0.000000
   17  O  2  S    0.000000   0.000000   0.197452   0.163892   0.000000
   18  O  2  X    0.358835   0.000000   0.000000   0.000000   0.459044
   19  O  2  Y    0.000000   0.358835   0.000000   0.000000   0.000000
   20  O  2  Z    0.000000   0.000000   0.368950   0.399822   0.000000
   21  O  2  S    0.000000   0.000000   0.302433   0.322239   0.000000
   22  O  2  X    0.198536   0.000000   0.000000   0.000000   0.334355
   23  O  2  Y    0.000000   0.198536   0.000000   0.000000   0.000000
   24  O  2  Z    0.000000   0.000000   0.197598   0.168418   0.000000
   25  O  2 XX    0.000000   0.000000   0.011175   0.011779   0.000000
   26  O  2 YY    0.000000   0.000000   0.011175   0.011779   0.000000
   27  O  2 ZZ    0.000000   0.000000  -0.024105  -0.023322   0.000000
   28  O  2 XY    0.000000   0.000000   0.000000   0.000000   0.000000
   29  O  2 XZ   -0.036419   0.000000   0.000000   0.000000  -0.025161
   30  O  2 YZ    0.000000  -0.036419   0.000000   0.000000   0.000000
   31  O  3  S    0.000000   0.000000  -0.082056   0.067115   0.000000
   32  O  3  S    0.000000   0.000000   0.197452  -0.163892   0.000000
   33  O  3  X    0.358835   0.000000   0.000000   0.000000  -0.459044
   34  O  3  Y    0.000000   0.358835   0.000000   0.000000   0.000000
   35  O  3  Z    0.000000   0.000000  -0.368950   0.399822   0.000000
   36  O  3  S    0.000000   0.000000   0.302433  -0.322239   0.000000
   37  O  3  X    0.198536   0.000000   0.000000   0.000000  -0.334355
   38  O  3  Y    0.000000   0.198536   0.000000   0.000000   0.000000
   39  O  3  Z    0.000000   0.000000  -0.197598   0.168418   0.000000
   40  O  3 XX    0.000000   0.000000   0.011175  -0.011779   0.000000
   41  O  3 YY    0.000000   0.000000   0.011175  -0.011779   0.000000
   42  O  3 ZZ    0.000000   0.000000  -0.024105   0.023322   0.000000
   43  O  3 XY    0.000000   0.000000   0.000000   0.000000   0.000000
   44  O  3 XZ    0.036419   0.000000   0.000000   0.000000  -0.025161
   45  O  3 YZ    0.000000   0.036419   0.000000   0.000000   0.000000

                     11         12         13         14         15
                   -0.5484     0.2974     0.3611     0.3611     0.5090
                     E          A1         E          E          A1  
    1  C  1  S    0.000000   0.008878   0.000000   0.000000   0.000000
    2  C  1  S    0.000000   0.062299   0.000000   0.000000   0.000000
    3  C  1  X    0.000000   0.000000   0.424576   0.000000   0.000000
    4  C  1  Y    0.000000   0.000000   0.000000   0.424576   0.000000
    5  C  1  Z    0.000000   0.000000   0.000000   0.000000   0.090534
    6  C  1  S    0.000000   3.503397   0.000000   0.000000   0.000000
    7  C  1  X    0.000000   0.000000   1.182520   0.000000   0.000000
    8  C  1  Y    0.000000   0.000000   0.000000   1.182520   0.000000
    9  C  1  Z    0.000000   0.000000   0.000000   0.000000   4.502194
   10  C  1 XX    0.000000  -0.012943   0.000000   0.000000   0.000000
   11  C  1 YY    0.000000  -0.012943   0.000000   0.000000   0.000000
   12  C  1 ZZ    0.000000   0.003982   0.000000   0.000000   0.000000
   13  C  1 XY    0.000000   0.000000   0.000000   0.000000   0.000000
   14  C  1 XZ    0.000000   0.000000   0.000000   0.000000   0.000000
   15  C  1 YZ    0.085211   0.000000   0.000000   0.000000   0.000000
   16  O  2  S    0.000000   0.088120   0.000000   0.000000   0.103488
   17  O  2  S    0.000000  -0.090695   0.000000   0.000000   0.077134
   18  O  2  X    0.000000   0.000000  -0.338824   0.000000   0.000000
   19  O  2  Y    0.459044   0.000000   0.000000  -0.338824   0.000000
   20  O  2  Z    0.000000   0.131628   0.000000   0.000000  -0.117181
   21  O  2  S    0.000000  -1.696947   0.000000   0.000000  -3.664340
   22  O  2  X    0.000000   0.000000  -0.640322   0.000000   0.000000
   23  O  2  Y    0.334355   0.000000   0.000000  -0.640322   0.000000
   24  O  2  Z    0.000000   0.736435   0.000000   0.000000   0.649491
   25  O  2 XX    0.000000   0.063927   0.000000   0.000000   0.092678
   26  O  2 YY    0.000000   0.063927   0.000000   0.000000   0.092678
   27  O  2 ZZ    0.000000  -0.044756   0.000000   0.000000   0.043809
   28  O  2 XY    0.000000   0.000000   0.000000   0.000000   0.000000
   29  O  2 XZ    0.000000   0.000000  -0.013572   0.000000   0.000000
   30  O  2 YZ   -0.025161   0.000000   0.000000  -0.013572   0.000000
   31  O  3  S    0.000000   0.088120   0.000000   0.000000  -0.103488
   32  O  3  S    0.000000  -0.090695   0.000000   0.000000  -0.077134
   33  O  3  X    0.000000   0.000000  -0.338824   0.000000   0.000000
   34  O  3  Y   -0.459044   0.000000   0.000000  -0.338824   0.000000
   35  O  3  Z    0.000000  -0.131628   0.000000   0.000000  -0.117181
   36  O  3  S    0.000000  -1.696947   0.000000   0.000000   3.664340
   37  O  3  X    0.000000   0.000000  -0.640322   0.000000   0.000000
   38  O  3  Y   -0.334355   0.000000   0.000000  -0.640322   0.000000
   39  O  3  Z    0.000000  -0.736435   0.000000   0.000000   0.649491
   40  O  3 XX    0.000000   0.063927   0.000000   0.000000  -0.092678
   41  O  3 YY    0.000000   0.063927   0.000000   0.000000  -0.092678
   42  O  3 ZZ    0.000000  -0.044756   0.000000   0.000000  -0.043809
   43  O  3 XY    0.000000   0.000000   0.000000   0.000000   0.000000
   44  O  3 XZ    0.000000   0.000000   0.013572   0.000000   0.000000
   45  O  3 YZ   -0.025161   0.000000   0.000000   0.013572   0.000000

                     16         17         18         19         20
                    0.6429     0.6429     0.9797     0.9981     1.0988
                     E          E          A1         A1         A1  
    1  C  1  S    0.000000   0.000000   0.179492   0.000000   0.092206
    2  C  1  S    0.000000   0.000000   0.843888   0.000000  -1.234157
    3  C  1  X   -0.962397   0.000000   0.000000   0.000000   0.000000
    4  C  1  Y    0.000000  -0.962397   0.000000   0.000000   0.000000
    5  C  1  Z    0.000000   0.000000   0.000000   0.824125   0.000000
    6  C  1  S    0.000000   0.000000   1.442599   0.000000   1.514727
    7  C  1  X    1.142056   0.000000   0.000000   0.000000   0.000000
    8  C  1  Y    0.000000   1.142056   0.000000   0.000000   0.000000
    9  C  1  Z    0.000000   0.000000   0.000000  -0.363711   0.000000
   10  C  1 XX    0.000000   0.000000  -0.185550   0.000000  -0.236451
   11  C  1 YY    0.000000   0.000000  -0.185550   0.000000  -0.236451
   12  C  1 ZZ    0.000000   0.000000   0.385244   0.000000   0.195849
   13  C  1 XY    0.000000   0.000000   0.000000   0.000000   0.000000
   14  C  1 XZ    0.000000   0.000000   0.000000   0.000000   0.000000
   15  C  1 YZ    0.000000   0.000000   0.000000   0.000000   0.000000
   16  O  2  S    0.000000   0.000000  -0.016072   0.022439  -0.031856
   17  O  2  S    0.000000   0.000000  -0.177317  -0.119053   0.454887
   18  O  2  X   -0.007990   0.000000   0.000000   0.000000   0.000000
   19  O  2  Y    0.000000  -0.007990   0.000000   0.000000   0.000000
   20  O  2  Z    0.000000   0.000000  -0.458447  -0.254485  -0.139886
   21  O  2  S    0.000000   0.000000  -0.609894  -0.254257  -0.925145
   22  O  2  X   -0.042923   0.000000   0.000000   0.000000   0.000000
   23  O  2  Y    0.000000  -0.042923   0.000000   0.000000   0.000000
   24  O  2  Z    0.000000   0.000000   1.182330   1.233874  -0.232958
   25  O  2 XX    0.000000   0.000000  -0.043199  -0.076547   0.188464
   26  O  2 YY    0.000000   0.000000  -0.043199  -0.076547   0.188464
   27  O  2 ZZ    0.000000   0.000000  -0.245477  -0.035346  -0.055456
   28  O  2 XY    0.000000   0.000000   0.000000   0.000000   0.000000
   29  O  2 XZ    0.091566   0.000000   0.000000   0.000000   0.000000
   30  O  2 YZ    0.000000   0.091566   0.000000   0.000000   0.000000
   31  O  3  S    0.000000   0.000000  -0.016072  -0.022439  -0.031856
   32  O  3  S    0.000000   0.000000  -0.177317   0.119053   0.454887
   33  O  3  X   -0.007990   0.000000   0.000000   0.000000   0.000000
   34  O  3  Y    0.000000  -0.007990   0.000000   0.000000   0.000000
   35  O  3  Z    0.000000   0.000000   0.458447  -0.254485   0.139886
   36  O  3  S    0.000000   0.000000  -0.609894   0.254257  -0.925145
   37  O  3  X   -0.042923   0.000000   0.000000   0.000000   0.000000
   38  O  3  Y    0.000000  -0.042923   0.000000   0.000000   0.000000
   39  O  3  Z    0.000000   0.000000  -1.182330   1.233874   0.232958
   40  O  3 XX    0.000000   0.000000  -0.043199   0.076547   0.188464
   41  O  3 YY    0.000000   0.000000  -0.043199   0.076547   0.188464
   42  O  3 ZZ    0.000000   0.000000  -0.245477   0.035346  -0.055456
   43  O  3 XY    0.000000   0.000000   0.000000   0.000000   0.000000
   44  O  3 XZ   -0.091566   0.000000   0.000000   0.000000   0.000000
   45  O  3 YZ    0.000000  -0.091566   0.000000   0.000000   0.000000

                     21         22         23         24         25
                    1.1211     1.1211     1.3867     1.3867     1.5919
                     E          E          E          E          B1  
    1  C  1  S    0.000000   0.000000   0.000000   0.000000   0.000000
    2  C  1  S    0.000000   0.000000   0.000000   0.000000   0.000000
    3  C  1  X    0.000000   0.000000  -0.202460   0.000000   0.000000
    4  C  1  Y    0.000000   0.000000   0.000000  -0.202460   0.000000
    5  C  1  Z    0.000000   0.000000   0.000000   0.000000   0.000000
    6  C  1  S    0.000000   0.000000   0.000000   0.000000   0.000000
    7  C  1  X    0.000000   0.000000   1.322885   0.000000   0.000000
    8  C  1  Y    0.000000   0.000000   0.000000   1.322885   0.000000
    9  C  1  Z    0.000000   0.000000   0.000000   0.000000   0.000000
   10  C  1 XX    0.000000   0.000000   0.000000   0.000000   0.587354
   11  C  1 YY    0.000000   0.000000   0.000000   0.000000  -0.587354
   12  C  1 ZZ    0.000000   0.000000   0.000000   0.000000   0.000000
   13  C  1 XY    0.000000   0.000000   0.000000   0.000000   0.000000
   14  C  1 XZ    0.326680   0.000000   0.000000   0.000000   0.000000
   15  C  1 YZ    0.000000   0.326680   0.000000   0.000000   0.000000
   16  O  2  S    0.000000   0.000000   0.000000   0.000000   0.000000
   17  O  2  S    0.000000   0.000000   0.000000   0.000000   0.000000
   18  O  2  X    0.567634   0.000000   0.691543   0.000000   0.000000
   19  O  2  Y    0.000000   0.567634   0.000000   0.691543   0.000000
   20  O  2  Z    0.000000   0.000000   0.000000   0.000000   0.000000
   21  O  2  S    0.000000   0.000000   0.000000   0.000000   0.000000
   22  O  2  X   -0.877307   0.000000  -1.263570   0.000000   0.000000
   23  O  2  Y    0.000000  -0.877307   0.000000  -1.263570   0.000000
   24  O  2  Z    0.000000   0.000000   0.000000   0.000000   0.000000
   25  O  2 XX    0.000000   0.000000   0.000000   0.000000   0.330353
   26  O  2 YY    0.000000   0.000000   0.000000   0.000000  -0.330353
   27  O  2 ZZ    0.000000   0.000000   0.000000   0.000000   0.000000
   28  O  2 XY    0.000000   0.000000   0.000000   0.000000   0.000000
   29  O  2 XZ    0.022557   0.000000  -0.036343   0.000000   0.000000
   30  O  2 YZ    0.000000   0.022557   0.000000  -0.036343   0.000000
   31  O  3  S    0.000000   0.000000   0.000000   0.000000   0.000000
   32  O  3  S    0.000000   0.000000   0.000000   0.000000   0.000000
   33  O  3  X   -0.567634   0.000000   0.691543   0.000000   0.000000
   34  O  3  Y    0.000000  -0.567634   0.000000   0.691543   0.000000
   35  O  3  Z    0.000000   0.000000   0.000000   0.000000   0.000000
   36  O  3  S    0.000000   0.000000   0.000000   0.000000   0.000000
   37  O  3  X    0.877307   0.000000  -1.263570   0.000000   0.000000
   38  O  3  Y    0.000000   0.877307   0.000000  -1.263570   0.000000
   39  O  3  Z    0.000000   0.000000   0.000000   0.000000   0.000000
   40  O  3 XX    0.000000   0.000000   0.000000   0.000000   0.330353
   41  O  3 YY    0.000000   0.000000   0.000000   0.000000  -0.330353
   42  O  3 ZZ    0.000000   0.000000   0.000000   0.000000   0.000000
   43  O  3 XY    0.000000   0.000000   0.000000   0.000000   0.000000
   44  O  3 XZ    0.022557   0.000000   0.036343   0.000000   0.000000
   45  O  3 YZ    0.000000   0.022557   0.000000   0.036343   0.000000

                     26         27         28         29         30
                    1.5919     1.7065     1.8653     1.8966     1.8966
                     B2         A1         A1         E          E   
    1  C  1  S    0.000000   0.048515   0.000000   0.000000   0.000000
    2  C  1  S    0.000000   1.025780   0.000000   0.000000   0.000000
    3  C  1  X    0.000000   0.000000   0.000000   0.000000   0.000000
    4  C  1  Y    0.000000   0.000000   0.000000   0.000000   0.000000
    5  C  1  Z    0.000000   0.000000  -0.804658   0.000000   0.000000
    6  C  1  S    0.000000   4.488518   0.000000   0.000000   0.000000
    7  C  1  X    0.000000   0.000000   0.000000   0.000000   0.000000
    8  C  1  Y    0.000000   0.000000   0.000000   0.000000   0.000000
    9  C  1  Z    0.000000   0.000000  -3.692961   0.000000   0.000000
   10  C  1 XX    0.000000  -0.118150   0.000000   0.000000   0.000000
   11  C  1 YY    0.000000  -0.118150   0.000000   0.000000   0.000000
   12  C  1 ZZ    0.000000   0.161488   0.000000   0.000000   0.000000
   13  C  1 XY    0.678218   0.000000   0.000000   0.000000   0.000000
   14  C  1 XZ    0.000000   0.000000   0.000000  -0.353257   0.000000
   15  C  1 YZ    0.000000   0.000000   0.000000   0.000000  -0.353257
   16  O  2  S    0.000000   0.079221  -0.094100   0.000000   0.000000
   17  O  2  S    0.000000   1.148982  -0.680413   0.000000   0.000000
   18  O  2  X    0.000000   0.000000   0.000000   0.294815   0.000000
   19  O  2  Y    0.000000   0.000000   0.000000   0.000000   0.294815
   20  O  2  Z    0.000000   0.085042  -0.561506   0.000000   0.000000
   21  O  2  S    0.000000  -4.272668   4.440163   0.000000   0.000000
   22  O  2  X    0.000000   0.000000   0.000000  -0.123438   0.000000
   23  O  2  Y    0.000000   0.000000   0.000000   0.000000  -0.123438
   24  O  2  Z    0.000000   1.362348  -0.378696   0.000000   0.000000
   25  O  2 XX    0.000000   0.196268  -0.061744   0.000000   0.000000
   26  O  2 YY    0.000000   0.196268  -0.061744   0.000000   0.000000
   27  O  2 ZZ    0.000000   0.525746  -0.556675   0.000000   0.000000
   28  O  2 XY    0.381459   0.000000   0.000000   0.000000   0.000000
   29  O  2 XZ    0.000000   0.000000   0.000000   0.517643   0.000000
   30  O  2 YZ    0.000000   0.000000   0.000000   0.000000   0.517643
   31  O  3  S    0.000000   0.079221   0.094100   0.000000   0.000000
   32  O  3  S    0.000000   1.148982   0.680413   0.000000   0.000000
   33  O  3  X    0.000000   0.000000   0.000000  -0.294815   0.000000
   34  O  3  Y    0.000000   0.000000   0.000000   0.000000  -0.294815
   35  O  3  Z    0.000000  -0.085042  -0.561506   0.000000   0.000000
   36  O  3  S    0.000000  -4.272668  -4.440163   0.000000   0.000000
   37  O  3  X    0.000000   0.000000   0.000000   0.123438   0.000000
   38  O  3  Y    0.000000   0.000000   0.000000   0.000000   0.123438
   39  O  3  Z    0.000000  -1.362348  -0.378696   0.000000   0.000000
   40  O  3 XX    0.000000   0.196268   0.061744   0.000000   0.000000
   41  O  3 YY    0.000000   0.196268   0.061744   0.000000   0.000000
   42  O  3 ZZ    0.000000   0.525746   0.556675   0.000000   0.000000
   43  O  3 XY    0.381459   0.000000   0.000000   0.000000   0.000000
   44  O  3 XZ    0.000000   0.000000   0.000000   0.517643   0.000000
   45  O  3 YZ    0.000000   0.000000   0.000000   0.000000   0.517643

                     31         32         33         34         35
                    2.0062     2.0062     2.2208     2.5260     2.5260
                     B2         B1         A1         B2         B1  
    1  C  1  S    0.000000   0.000000   0.000000   0.000000   0.000000
    2  C  1  S    0.000000   0.000000   0.000000   0.000000   0.000000
    3  C  1  X    0.000000   0.000000   0.000000   0.000000   0.000000
    4  C  1  Y    0.000000   0.000000   0.000000   0.000000   0.000000
    5  C  1  Z    0.000000   0.000000   0.297956   0.000000   0.000000
    6  C  1  S    0.000000   0.000000   0.000000   0.000000   0.000000
    7  C  1  X    0.000000   0.000000   0.000000   0.000000   0.000000
    8  C  1  Y    0.000000   0.000000   0.000000   0.000000   0.000000
    9  C  1  Z    0.000000   0.000000  -3.880149   0.000000   0.000000
   10  C  1 XX    0.000000   0.000000   0.000000   0.000000   0.708530
   11  C  1 YY    0.000000   0.000000   0.000000   0.000000  -0.708530
   12  C  1 ZZ    0.000000   0.000000   0.000000   0.000000   0.000000
   13  C  1 XY    0.000000   0.000000   0.000000   0.818140   0.000000
   14  C  1 XZ    0.000000   0.000000   0.000000   0.000000   0.000000
   15  C  1 YZ    0.000000   0.000000   0.000000   0.000000   0.000000
   16  O  2  S    0.000000   0.000000  -0.036980   0.000000   0.000000
   17  O  2  S    0.000000   0.000000  -1.651300   0.000000   0.000000
   18  O  2  X    0.000000   0.000000   0.000000   0.000000   0.000000
   19  O  2  Y    0.000000   0.000000   0.000000   0.000000   0.000000
   20  O  2  Z    0.000000   0.000000   0.366752   0.000000   0.000000
   21  O  2  S    0.000000   0.000000   5.087444   0.000000   0.000000
   22  O  2  X    0.000000   0.000000   0.000000   0.000000   0.000000
   23  O  2  Y    0.000000   0.000000   0.000000   0.000000   0.000000
   24  O  2  Z    0.000000   0.000000  -1.103591   0.000000   0.000000
   25  O  2 XX    0.000000  -0.613385  -0.274872   0.000000  -0.559440
   26  O  2 YY    0.000000   0.613385  -0.274872   0.000000   0.559440
   27  O  2 ZZ    0.000000   0.000000  -0.057761   0.000000   0.000000
   28  O  2 XY    0.708277   0.000000   0.000000  -0.645986   0.000000
   29  O  2 XZ    0.000000   0.000000   0.000000   0.000000   0.000000
   30  O  2 YZ    0.000000   0.000000   0.000000   0.000000   0.000000
   31  O  3  S    0.000000   0.000000   0.036980   0.000000   0.000000
   32  O  3  S    0.000000   0.000000   1.651300   0.000000   0.000000
   33  O  3  X    0.000000   0.000000   0.000000   0.000000   0.000000
   34  O  3  Y    0.000000   0.000000   0.000000   0.000000   0.000000
   35  O  3  Z    0.000000   0.000000   0.366752   0.000000   0.000000
   36  O  3  S    0.000000   0.000000  -5.087444   0.000000   0.000000
   37  O  3  X    0.000000   0.000000   0.000000   0.000000   0.000000
   38  O  3  Y    0.000000   0.000000   0.000000   0.000000   0.000000
   39  O  3  Z    0.000000   0.000000  -1.103591   0.000000   0.000000
   40  O  3 XX    0.000000   0.613385   0.274872   0.000000  -0.559440
   41  O  3 YY    0.000000  -0.613385   0.274872   0.000000   0.559440
   42  O  3 ZZ    0.000000   0.000000   0.057761   0.000000   0.000000
   43  O  3 XY   -0.708277   0.000000   0.000000  -0.645986   0.000000
   44  O  3 XZ    0.000000   0.000000   0.000000   0.000000   0.000000
   45  O  3 YZ    0.000000   0.000000   0.000000   0.000000   0.000000

                     36         37         38         39         40
                    2.7970     2.7970     3.5704     3.6059     3.6059
                     E          E          A1         E          E   
    1  C  1  S    0.000000   0.000000   0.000000   0.000000   0.000000
    2  C  1  S    0.000000   0.000000   0.000000   0.000000   0.000000
    3  C  1  X    0.912566   0.000000   0.000000   0.000000   0.000000
    4  C  1  Y    0.000000   0.912566   0.000000   0.000000   0.000000
    5  C  1  Z    0.000000   0.000000  -2.324783   0.000000   0.000000
    6  C  1  S    0.000000   0.000000   0.000000   0.000000   0.000000
    7  C  1  X    0.531142   0.000000   0.000000   0.000000   0.000000
    8  C  1  Y    0.000000   0.531142   0.000000   0.000000   0.000000
    9  C  1  Z    0.000000   0.000000  -0.985613   0.000000   0.000000
   10  C  1 XX    0.000000   0.000000   0.000000   0.000000   0.000000
   11  C  1 YY    0.000000   0.000000   0.000000   0.000000   0.000000
   12  C  1 ZZ    0.000000   0.000000   0.000000   0.000000   0.000000
   13  C  1 XY    0.000000   0.000000   0.000000   0.000000   0.000000
   14  C  1 XZ    0.000000   0.000000   0.000000   1.796410   0.000000
   15  C  1 YZ    0.000000   0.000000   0.000000   0.000000   1.796410
   16  O  2  S    0.000000   0.000000  -0.049649   0.000000   0.000000
   17  O  2  S    0.000000   0.000000  -0.144297   0.000000   0.000000
   18  O  2  X    0.081350   0.000000   0.000000  -0.445269   0.000000
   19  O  2  Y    0.000000   0.081350   0.000000   0.000000  -0.445269
   20  O  2  Z    0.000000   0.000000  -0.489702   0.000000   0.000000
   21  O  2  S    0.000000   0.000000   2.491479   0.000000   0.000000
   22  O  2  X   -0.607820   0.000000   0.000000  -0.400140   0.000000
   23  O  2  Y    0.000000  -0.607820   0.000000   0.000000  -0.400140
   24  O  2  Z    0.000000   0.000000  -1.324956   0.000000   0.000000
   25  O  2 XX    0.000000   0.000000  -0.538652   0.000000   0.000000
   26  O  2 YY    0.000000   0.000000  -0.538652   0.000000   0.000000
   27  O  2 ZZ    0.000000   0.000000   1.068232   0.000000   0.000000
   28  O  2 XY    0.000000   0.000000   0.000000   0.000000   0.000000
   29  O  2 XZ    0.893882   0.000000   0.000000   1.026085   0.000000
   30  O  2 YZ    0.000000   0.893882   0.000000   0.000000   1.026085
   31  O  3  S    0.000000   0.000000   0.049649   0.000000   0.000000
   32  O  3  S    0.000000   0.000000   0.144297   0.000000   0.000000
   33  O  3  X    0.081350   0.000000   0.000000   0.445269   0.000000
   34  O  3  Y    0.000000   0.081350   0.000000   0.000000   0.445269
   35  O  3  Z    0.000000   0.000000  -0.489702   0.000000   0.000000
   36  O  3  S    0.000000   0.000000  -2.491479   0.000000   0.000000
   37  O  3  X   -0.607820   0.000000   0.000000   0.400140   0.000000
   38  O  3  Y    0.000000  -0.607820   0.000000   0.000000   0.400140
   39  O  3  Z    0.000000   0.000000  -1.324956   0.000000   0.000000
   40  O  3 XX    0.000000   0.000000   0.538652   0.000000   0.000000
   41  O  3 YY    0.000000   0.000000   0.538652   0.000000   0.000000
   42  O  3 ZZ    0.000000   0.000000  -1.068232   0.000000   0.000000
   43  O  3 XY    0.000000   0.000000   0.000000   0.000000   0.000000
   44  O  3 XZ   -0.893882   0.000000   0.000000   1.026085   0.000000
   45  O  3 YZ    0.000000  -0.893882   0.000000   0.000000   1.026085

                     41         42         43         44         45
                    3.6508     3.9884     4.4575     5.1048     5.6870
                     A1         A1         A1         A1         A1  
    1  C  1  S    0.531829  -0.166860  -0.283685   0.000000   0.470792
    2  C  1  S    2.966686   4.082654  -0.900970   0.000000  -0.227717
    3  C  1  X    0.000000   0.000000   0.000000   0.000000   0.000000
    4  C  1  Y    0.000000   0.000000   0.000000   0.000000   0.000000
    5  C  1  Z    0.000000   0.000000   0.000000  -0.415924   0.000000
    6  C  1  S    2.121456   1.229687  -4.927237   0.000000   0.726581
    7  C  1  X    0.000000   0.000000   0.000000   0.000000   0.000000
    8  C  1  Y    0.000000   0.000000   0.000000   0.000000   0.000000
    9  C  1  Z    0.000000   0.000000   0.000000   5.555873   0.000000
   10  C  1 XX    0.276754  -1.746611  -0.501388   0.000000   0.489875
   11  C  1 YY    0.276754  -1.746611  -0.501388   0.000000   0.489875
   12  C  1 ZZ    0.230762  -0.269793   0.127337   0.000000   3.846082
   13  C  1 XY    0.000000   0.000000   0.000000   0.000000   0.000000
   14  C  1 XZ    0.000000   0.000000   0.000000   0.000000   0.000000
   15  C  1 YZ    0.000000   0.000000   0.000000   0.000000   0.000000
   16  O  2  S   -0.055168   0.034561  -0.425950   0.511545  -0.105959
   17  O  2  S    0.766974  -0.413853  -0.798414   1.062057  -1.303330
   18  O  2  X    0.000000   0.000000   0.000000   0.000000   0.000000
   19  O  2  Y    0.000000   0.000000   0.000000   0.000000   0.000000
   20  O  2  Z    0.231102   0.575661   0.293146  -0.285233   1.259352
   21  O  2  S   -2.274001  -1.002246   6.243704  -8.977133  -0.869899
   22  O  2  X    0.000000   0.000000   0.000000   0.000000   0.000000
   23  O  2  Y    0.000000   0.000000   0.000000   0.000000   0.000000
   24  O  2  Z    1.688441   0.396890  -1.874045   1.342383   0.712758
   25  O  2 XX    0.170711   0.340949  -1.498024   1.643293   0.064044
   26  O  2 YY    0.170711   0.340949  -1.498024   1.643293   0.064044
   27  O  2 ZZ   -1.300733  -0.501192  -0.924650   1.608889  -0.572945
   28  O  2 XY    0.000000   0.000000   0.000000   0.000000   0.000000
   29  O  2 XZ    0.000000   0.000000   0.000000   0.000000   0.000000
   30  O  2 YZ    0.000000   0.000000   0.000000   0.000000   0.000000
   31  O  3  S   -0.055168   0.034561  -0.425950  -0.511545  -0.105959
   32  O  3  S    0.766974  -0.413853  -0.798414  -1.062057  -1.303330
   33  O  3  X    0.000000   0.000000   0.000000   0.000000   0.000000
   34  O  3  Y    0.000000   0.000000   0.000000   0.000000   0.000000
   35  O  3  Z   -0.231102  -0.575661  -0.293146  -0.285233  -1.259352
   36  O  3  S   -2.274001  -1.002246   6.243704   8.977133  -0.869899
   37  O  3  X    0.000000   0.000000   0.000000   0.000000   0.000000
   38  O  3  Y    0.000000   0.000000   0.000000   0.000000   0.000000
   39  O  3  Z   -1.688441  -0.396890   1.874045   1.342383  -0.712758
   40  O  3 XX    0.170711   0.340949  -1.498024  -1.643293   0.064044
   41  O  3 YY    0.170711   0.340949  -1.498024  -1.643293   0.064044
   42  O  3 ZZ   -1.300733  -0.501192  -0.924650  -1.608889  -0.572945
   43  O  3 XY    0.000000   0.000000   0.000000   0.000000   0.000000
   44  O  3 XZ    0.000000   0.000000   0.000000   0.000000   0.000000
   45  O  3 YZ    0.000000   0.000000   0.000000   0.000000   0.000000
 ...... END OF RHF CALCULATION ......
 CPU     0: STEP CPU TIME=     0.01 TOTAL CPU TIME=        0.1 (    0.0 MIN)
 TOTAL WALL CLOCK TIME=        0.1 SECONDS, CPU UTILIZATION IS 100.00%

     ----------------------------------------------------------------
     PROPERTY VALUES FOR THE RHF   SELF-CONSISTENT FIELD WAVEFUNCTION
     ----------------------------------------------------------------

          -----------------
          ENERGY COMPONENTS
          -----------------

         WAVEFUNCTION NORMALIZATION =       1.0000000000

                ONE ELECTRON ENERGY =    -390.3833016579
                TWO ELECTRON ENERGY =     135.1581122926
           NUCLEAR REPULSION ENERGY =      67.7346879027
                                      ------------------
                       TOTAL ENERGY =    -187.4905014625

 ELECTRON-ELECTRON POTENTIAL ENERGY =     135.1581122926
  NUCLEUS-ELECTRON POTENTIAL ENERGY =    -579.5897638189
   NUCLEUS-NUCLEUS POTENTIAL ENERGY =      67.7346879027
                                      ------------------
             TOTAL POTENTIAL ENERGY =    -376.6969636236
               TOTAL KINETIC ENERGY =     189.2064621611
                 VIRIAL RATIO (V/T) =       1.9909307500

  ...... PI ENERGY ANALYSIS ......

 ENERGY ANALYSIS:
            FOCK ENERGY=   -120.0670784867
          BARE H ENERGY=   -390.3833016579
     ELECTRONIC ENERGY =   -255.2251900723
         KINETIC ENERGY=    189.2064621611
          N-N REPULSION=     67.7346879027
           TOTAL ENERGY=   -187.4905021696
        SIGMA PART(1+2)=   -207.1687558840
               (K,V1,2)=    171.9254355249   -471.5633505762     92.4691591673
           PI PART(1+2)=    -48.0564341883
               (K,V1,2)=     17.2810266361   -108.0264132427     42.6889524183
  SIGMA SKELETON, ERROR=   -139.4340679813      0.0000000000
             MIXED PART= 0.00000E+00 0.00000E+00 0.00000E+00 0.00000E+00
 ...... END OF PI ENERGY ANALYSIS ......

          ---------------------------------------
          MULLIKEN AND LOWDIN POPULATION ANALYSES
          ---------------------------------------

     ATOMIC MULLIKEN POPULATION IN EACH MOLECULAR ORBITAL

                      1          2          3          4          5

                  2.000000   2.000000   2.000000   2.000000   2.000000

    1            -0.001030  -0.002800   2.002583   0.544924   0.756435
    2             1.000515   1.001400  -0.001291   0.727538   0.621782
    3             1.000515   1.001400  -0.001291   0.727538   0.621782

                      6          7          8          9         10

                  2.000000   2.000000   2.000000   2.000000   2.000000

    1             0.690235   0.690235   0.166198   0.192074   0.102087
    2             0.654883   0.654883   0.916901   0.903963   0.948957
    3             0.654883   0.654883   0.916901   0.903963   0.948957

                     11

                  2.000000

    1             0.102087
    2             0.948957
    3             0.948957

               ----- POPULATIONS IN EACH AO -----
                             MULLIKEN      LOWDIN
              1  C  1  S      1.99753     1.93818
              2  C  1  S      0.69839     0.34938
              3  C  1  X      0.57395     0.48569
              4  C  1  Y      0.57395     0.48569
              5  C  1  Z      0.90162     0.76479
              6  C  1  S      0.02045     0.17770
              7  C  1  X      0.11629     0.23589
              8  C  1  Y      0.11629     0.23589
              9  C  1  Z      0.04586     0.27938
             10  C  1 XX     -0.04036     0.07032
             11  C  1 YY     -0.04036     0.07032
             12  C  1 ZZ      0.07525     0.35401
             13  C  1 XY      0.00000     0.00000
             14  C  1 XZ      0.10209     0.23479
             15  C  1 YZ      0.10209     0.23479
             16  O  2  S      1.99560     1.97417
             17  O  2  S      0.89428     0.65968
             18  O  2  X      0.98617     0.91025
             19  O  2  Y      0.98617     0.91025
             20  O  2  Z      1.03097     0.96295
             21  O  2  S      0.82739     0.41701
             22  O  2  X      0.59985     0.58724
             23  O  2  Y      0.59985     0.58724
             24  O  2  Z      0.39107     0.47097
             25  O  2 XX      0.00447     0.15556
             26  O  2 YY      0.00447     0.15556
             27  O  2 ZZ      0.02256     0.20206
             28  O  2 XY      0.00000     0.00000
             29  O  2 XZ      0.01782     0.02433
             30  O  2 YZ      0.01782     0.02433
             31  O  3  S      1.99560     1.97417
             32  O  3  S      0.89428     0.65968
             33  O  3  X      0.98617     0.91025
             34  O  3  Y      0.98617     0.91025
             35  O  3  Z      1.03097     0.96295
             36  O  3  S      0.82739     0.41701
             37  O  3  X      0.59985     0.58724
             38  O  3  Y      0.59985     0.58724
             39  O  3  Z      0.39107     0.47097
             40  O  3 XX      0.00447     0.15556
             41  O  3 YY      0.00447     0.15556
             42  O  3 ZZ      0.02256     0.20206
             43  O  3 XY      0.00000     0.00000
             44  O  3 XZ      0.01782     0.02433
             45  O  3 YZ      0.01782     0.02433

          ----- MULLIKEN ATOMIC OVERLAP POPULATIONS -----
          (OFF-DIAGONAL ELEMENTS NEED TO BE MULTIPLIED BY 2)

             1           2           3

    1    3.7715616
    2    0.7357327   7.6637617
    3    0.7357327  -0.0210080   7.6637617

          TOTAL MULLIKEN AND LOWDIN ATOMIC POPULATIONS
       ATOM         MULL.POP.    CHARGE          LOW.POP.     CHARGE
    1 C             5.243027    0.756973         5.916826    0.083174
    2 O             8.378486   -0.378486         8.041587   -0.041587
    3 O             8.378486   -0.378486         8.041587   -0.041587

          -------------------------------
          BOND ORDER AND VALENCE ANALYSIS     BOND ORDER THRESHOLD=0.050
          -------------------------------

                   BOND                       BOND                       BOND
  ATOM PAIR DIST  ORDER      ATOM PAIR DIST  ORDER      ATOM PAIR DIST  ORDER
    1   2  1.000  2.070        1   3  1.000  2.070        2   3  2.000  0.235

                       TOTAL       BONDED        FREE
      ATOM            VALENCE     VALENCE     VALENCE
    1 C                 4.139       4.139       0.000
    2 O                 2.305       2.305       0.000
    3 O                 2.305       2.305       0.000

          ---------------------
          ELECTROSTATIC MOMENTS
          ---------------------

 POINT   1           X           Y           Z (BOHR)    CHARGE
                 0.000000    0.000000    0.000000        0.00 (A.U.)
         DX          DY          DZ         /D/  (DEBYE)
     0.000000    0.000000    0.000000    0.000000
 ...... END OF PROPERTY EVALUATION ......
 CPU     0: STEP CPU TIME=     0.00 TOTAL CPU TIME=        0.1 (    0.0 MIN)
 TOTAL WALL CLOCK TIME=        0.1 SECONDS, CPU UTILIZATION IS 100.00%

 BEGINNING ONE ELECTRON GRADIENT...
 ..... END OF 1-ELECTRON GRADIENT ......
 CPU     0: STEP CPU TIME=     0.01 TOTAL CPU TIME=        0.1 (    0.0 MIN)
 TOTAL WALL CLOCK TIME=        0.1 SECONDS, CPU UTILIZATION IS 100.00%

          ----------------------
          GRADIENT OF THE ENERGY
          ----------------------

 THE MINIMUM MEMORY REQUIRED FOR THIS RUN IS      77945 WORDS.
 USING     992495 WORDS FOR 2E- DERIVATIVE INTEGRAL CONTRIBUTIONS.
 THE COARSE/FINE SCHWARZ SCREENINGS SKIPPED            0/           0 BLOCKS.
 THE NUMBER OF GRADIENT INTEGRAL BLOCKS COMPUTED WAS      2916
 ...... END OF 2-ELECTRON GRADIENT ......
 CPU     0: STEP CPU TIME=     0.03 TOTAL CPU TIME=        0.1 (    0.0 MIN)
 TOTAL WALL CLOCK TIME=        0.1 SECONDS, CPU UTILIZATION IS 100.00%

          NSERCH=  0     ENERGY=    -187.4905015

                                 -----------------------
                                 GRADIENT (HARTREE/BOHR)
                                 -----------------------
        ATOM     ZNUC       DE/DX         DE/DY         DE/DZ
 --------------------------------------------------------------
    1  C            6.0     0.0000000     0.0000000     0.0000000
    2  O            8.0     0.0000000     0.0000000    -0.6242124
    3  O            8.0     0.0000000     0.0000000     0.6242124

          MAXIMUM GRADIENT = 0.6242124    RMS GRADIENT = 0.2942565

 NSERCH:   0  E=     -187.4905014625  GRAD. MAX=  0.6242124  R.M.S.=  0.2942565

          FORCE CONSTANT MATRIX NOT UPDATED --- TAKING FIRST STEP
          MIN SEARCH, CORRECT HESSIAN, TRYING PURE NR STEP
               NR STEP HAS LENGTH         =   0.863134
          TRIM/QA LAMBDA FOR NON-TS MODES =  -1.91981598
          TRIM/QA STEP HAS LENGTH         =   0.300000
          RADIUS OF STEP TAKEN=   0.30000  CURRENT TRUST RADIUS=   0.30000

 BEGINNING GEOMETRY SEARCH POINT NSERCH=   1 ...

 COORDINATES OF SYMMETRY UNIQUE ATOMS (ANGS)
   ATOM   CHARGE       X              Y              Z
 ------------------------------------------------------------
 C           6.0   0.0000000000   0.0000000000   0.0000000000
 O           8.0   0.0000000000   0.0000000000   1.1122554464
 O           8.0   0.0000000000   0.0000000000  -1.1122554464
 COORDINATES OF ALL ATOMS ARE (ANGS)
   ATOM   CHARGE       X              Y              Z
 ------------------------------------------------------------
 C           6.0   0.0000000000   0.0000000000   0.0000000000
 O           8.0   0.0000000000   0.0000000000   1.1122554464
 O           8.0   0.0000000000   0.0000000000  -1.1122554464

          INTERNUCLEAR DISTANCES (ANGS.)
          ------------------------------

                1 C          2 O          3 O     

   1 C       0.0000000    1.1122554 *  1.1122554 *
   2 O       1.1122554 *  0.0000000    2.2245109 *
   3 O       1.1122554 *  2.2245109 *  0.0000000  

  * ... LESS THAN  3.000

 ...... END OF ONE-ELECTRON INTEGRALS ......
 CPU     0: STEP CPU TIME=     0.00 TOTAL CPU TIME=        0.1 (    0.0 MIN)
 TOTAL WALL CLOCK TIME=        0.1 SECONDS, CPU UTILIZATION IS 100.00%
 TOTAL NUMBER OF NONZERO TWO-ELECTRON INTEGRALS =              144324
         11 INTEGRAL RECORDS WERE STORED ON DISK FILE  8.
  ...... END OF TWO-ELECTRON INTEGRALS .....
 CPU     0: STEP CPU TIME=     0.01 TOTAL CPU TIME=        0.1 (    0.0 MIN)
 TOTAL WALL CLOCK TIME=        0.1 SECONDS, CPU UTILIZATION IS 100.00%

          --------------------------
                 RHF SCF CALCULATION
          --------------------------
     DENSITY MATRIX CONV=  5.00E-04

 ITER EX DEM     TOTAL ENERGY        E CHANGE  DENSITY CHANGE    DIIS ERROR
          * * *   INITIATING DIIS PROCEDURE   * * *
   1  0  0     -187.6052173795  -187.6052173795   0.054937588   0.084780923
   2  1  0     -187.6272100152    -0.0219926357   0.021084212   0.029000904
   3  2  0     -187.6287965674    -0.0015865522   0.008101753   0.011464129
   4  3  0     -187.6290036885    -0.0002071211   0.002059724   0.003268174
   5  4  0     -187.6290280558    -0.0000243673   0.001006340   0.001262326
   6  5  0     -187.6290306235    -0.0000025677   0.000142977   0.000140511
   7  6  0     -187.6290306690    -0.0000000454   0.000023985   0.000018217
   8  7  0     -187.6290306697    -0.0000000007   0.000003528   0.000001227

          -----------------
          DENSITY CONVERGED
          -----------------
     TIME TO FORM FOCK OPERATORS=       0.0 SECONDS (       0.0 SEC/ITER)
     TIME TO SOLVE SCF EQUATIONS=       0.0 SECONDS (       0.0 SEC/ITER)

 FINAL RHF ENERGY IS     -187.6290306697 AFTER   8 ITERATIONS

 LZ VALUE ANALYSIS FOR THE MOS
 ----------------------------------------
 MO     1 (    1) HAS LZ(WEIGHT)= 0.00(100.0%) 
 MO     2 (    2) HAS LZ(WEIGHT)= 0.00(100.0%) 
 MO     3 (    3) HAS LZ(WEIGHT)= 0.00(100.0%) 
 MO     4 (    4) HAS LZ(WEIGHT)= 0.00(100.0%) 
 MO     5 (    5) HAS LZ(WEIGHT)= 0.00(100.0%) 
 MO     6 (    6) HAS LZ(WEIGHT)= 0.00(100.0%) 
 MO     7 (    7) HAS LZ(WEIGHT)= 0.00(100.0%) 
 MO     8 (    8) HAS LZ(WEIGHT)=-1.00( 50.0%)  1.00( 50.0%) 
 MO     9 (    8) HAS LZ(WEIGHT)=-1.00( 50.0%)  1.00( 50.0%) 
 MO    10 (    9) HAS LZ(WEIGHT)=-1.00( 50.0%)  1.00( 50.0%) 
 MO    11 (    9) HAS LZ(WEIGHT)=-1.00( 50.0%)  1.00( 50.0%) 
 MO    12 (   10) HAS LZ(WEIGHT)=-1.00( 50.0%)  1.00( 50.0%) 
 MO    13 (   10) HAS LZ(WEIGHT)=-1.00( 50.0%)  1.00( 50.0%) 
 MO    14 (   11) HAS LZ(WEIGHT)= 0.00(100.0%) 
 MO    15 (   12) HAS LZ(WEIGHT)= 0.00(100.0%) 
 MO    16 (   13) HAS LZ(WEIGHT)=-1.00( 50.0%)  1.00( 50.0%) 
 MO    17 (   13) HAS LZ(WEIGHT)=-1.00( 50.0%)  1.00( 50.0%) 
 MO    18 (   14) HAS LZ(WEIGHT)= 0.00(100.0%) 
 MO    19 (   15) HAS LZ(WEIGHT)= 0.00(100.0%) 
 MO    20 (   16) HAS LZ(WEIGHT)= 0.00(100.0%) 
 MO    21 (   17) HAS LZ(WEIGHT)=-1.00( 50.0%)  1.00( 50.0%) 
 MO    22 (   17) HAS LZ(WEIGHT)=-1.00( 50.0%)  1.00( 50.0%) 
 MO    23 (   18) HAS LZ(WEIGHT)=-1.00( 50.0%)  1.00( 50.0%) 
 MO    24 (   18) HAS LZ(WEIGHT)=-1.00( 50.0%)  1.00( 50.0%) 
 MO    25 (   19) HAS LZ(WEIGHT)= 0.00(100.0%) 
 MO    26 (   20) HAS LZ(WEIGHT)=-2.00( 50.0%)  2.00( 50.0%) 
 MO    27 (   20) HAS LZ(WEIGHT)=-2.00( 50.0%)  2.00( 50.0%) 
 MO    28 (   21) HAS LZ(WEIGHT)= 0.00(100.0%) 
 MO    29 (   22) HAS LZ(WEIGHT)=-1.00( 50.0%)  1.00( 50.0%) 
 MO    30 (   22) HAS LZ(WEIGHT)=-1.00( 50.0%)  1.00( 50.0%) 
 MO    31 (   23) HAS LZ(WEIGHT)=-2.00( 50.0%)  2.00( 50.0%) 
 MO    32 (   23) HAS LZ(WEIGHT)=-2.00( 50.0%)  2.00( 50.0%) 
 MO    33 (   24) HAS LZ(WEIGHT)= 0.00(100.0%) 
 MO    34 (   25) HAS LZ(WEIGHT)=-2.00( 50.0%)  2.00( 50.0%) 
 MO    35 (   25) HAS LZ(WEIGHT)=-2.00( 50.0%)  2.00( 50.0%) 
 MO    36 (   26) HAS LZ(WEIGHT)=-1.00( 50.0%)  1.00( 50.0%) 
 MO    37 (   26) HAS LZ(WEIGHT)=-1.00( 50.0%)  1.00( 50.0%) 
 MO    38 (   27) HAS LZ(WEIGHT)= 0.00(100.0%) 
 MO    39 (   28) HAS LZ(WEIGHT)= 0.00(100.0%) 
 MO    40 (   29) HAS LZ(WEIGHT)=-1.00( 50.0%)  1.00( 50.0%) 
 MO    41 (   29) HAS LZ(WEIGHT)=-1.00( 50.0%)  1.00( 50.0%) 
 MO    42 (   30) HAS LZ(WEIGHT)= 0.00(100.0%) 
 MO    43 (   31) HAS LZ(WEIGHT)= 0.00(100.0%) 
 MO    44 (   32) HAS LZ(WEIGHT)= 0.00(100.0%) 
 MO    45 (   33) HAS LZ(WEIGHT)= 0.00(100.0%) 
 ...... END OF RHF CALCULATION ......
 CPU     0: STEP CPU TIME=     0.01 TOTAL CPU TIME=        0.1 (    0.0 MIN)
 TOTAL WALL CLOCK TIME=        0.1 SECONDS, CPU UTILIZATION IS 100.00%
 ..... END OF 1-ELECTRON GRADIENT ......
 CPU     0: STEP CPU TIME=     0.01 TOTAL CPU TIME=        0.1 (    0.0 MIN)
 TOTAL WALL CLOCK TIME=        0.1 SECONDS, CPU UTILIZATION IS 100.00%
 ...... END OF 2-ELECTRON GRADIENT ......
 CPU     0: STEP CPU TIME=     0.03 TOTAL CPU TIME=        0.2 (    0.0 MIN)
 TOTAL WALL CLOCK TIME=        0.2 SECONDS, CPU UTILIZATION IS 100.00%

          NSERCH=  1     ENERGY=    -187.6290307

                                 -----------------------
                                 GRADIENT (HARTREE/BOHR)
                                 -----------------------
        ATOM     ZNUC       DE/DX         DE/DY         DE/DZ
 --------------------------------------------------------------
    1  C            6.0     0.0000000     0.0000000     0.0000000
    2  O            8.0     0.0000000     0.0000000    -0.0909962
    3  O            8.0     0.0000000     0.0000000     0.0909962

          MAXIMUM GRADIENT = 0.0909962    RMS GRADIENT = 0.0428960

 NSERCH:   1  E=     -187.6290306697  GRAD. MAX=  0.0909962  R.M.S.=  0.0428960

          HESSIAN UPDATED USING THE BFGS FORMULA
             ACTUAL ENERGY CHANGE WAS  -0.1385292071
          PREDICTED ENERGY CHANGE WAS  -0.2188071555 RATIO=  0.633
          MIN SEARCH, CORRECT HESSIAN, TRYING PURE NR STEP
               NR STEP HAS LENGTH         =   0.051197
          RADIUS OF STEP TAKEN=   0.05120  CURRENT TRUST RADIUS=   0.30000

 BEGINNING GEOMETRY SEARCH POINT NSERCH=   2 ...

 COORDINATES OF SYMMETRY UNIQUE ATOMS (ANGS)
   ATOM   CHARGE       X              Y              Z
 ------------------------------------------------------------
 C           6.0   0.0000000000   0.0000000000   0.0000000000
 O           8.0   0.0000000000   0.0000000000   1.1314124386
 O           8.0   0.0000000000   0.0000000000  -1.1314124386
 COORDINATES OF ALL ATOMS ARE (ANGS)
   ATOM   CHARGE       X              Y              Z
 ------------------------------------------------------------
 C           6.0   0.0000000000   0.0000000000   0.0000000000
 O           8.0   0.0000000000   0.0000000000   1.1314124386
 O           8.0   0.0000000000   0.0000000000  -1.1314124386

          INTERNUCLEAR DISTANCES (ANGS.)
          ------------------------------

                1 C          2 O          3 O     

   1 C       0.0000000    1.1314124 *  1.1314124 *
   2 O       1.1314124 *  0.0000000    2.2628249 *
   3 O       1.1314124 *  2.2628249 *  0.0000000  

  * ... LESS THAN  3.000

 ...... END OF ONE-ELECTRON INTEGRALS ......
 CPU     0: STEP CPU TIME=     0.00 TOTAL CPU TIME=        0.2 (    0.0 MIN)
 TOTAL WALL CLOCK TIME=        0.2 SECONDS, CPU UTILIZATION IS 100.00%
 TOTAL NUMBER OF NONZERO TWO-ELECTRON INTEGRALS =              144032
         12 INTEGRAL RECORDS WERE STORED ON DISK FILE  8.
  ...... END OF TWO-ELECTRON INTEGRALS .....
 CPU     0: STEP CPU TIME=     0.01 TOTAL CPU TIME=        0.2 (    0.0 MIN)
 TOTAL WALL CLOCK TIME=        0.2 SECONDS, CPU UTILIZATION IS 100.00%

          --------------------------
                 RHF SCF CALCULATION
          --------------------------
     DENSITY MATRIX CONV=  2.00E-04

 ITER EX DEM     TOTAL ENERGY        E CHANGE  DENSITY CHANGE    DIIS ERROR
          * * *   INITIATING DIIS PROCEDURE   * * *
   1  0  0     -187.6328432374  -187.6328432374   0.008495535   0.013645920
   2  1  0     -187.6334058269    -0.0005625895   0.003341322   0.004467832
   3  2  0     -187.6334502733    -0.0000444464   0.001491989   0.002048959
   4  3  0     -187.6334568145    -0.0000065412   0.000375742   0.000593227
   5  4  0     -187.6334576056    -0.0000007911   0.000193364   0.000239840
   6  5  0     -187.6334576931    -0.0000000875   0.000025850   0.000025458
   7  6  0     -187.6334576946    -0.0000000015   0.000004479   0.000002933

          -----------------
          DENSITY CONVERGED
          -----------------
     TIME TO FORM FOCK OPERATORS=       0.0 SECONDS (       0.0 SEC/ITER)
     TIME TO SOLVE SCF EQUATIONS=       0.0 SECONDS (       0.0 SEC/ITER)

 FINAL RHF ENERGY IS     -187.6334576946 AFTER   7 ITERATIONS

 LZ VALUE ANALYSIS FOR THE MOS
 ----------------------------------------
 MO     1 (    1) HAS LZ(WEIGHT)= 0.00(100.0%) 
 MO     2 (    2) HAS LZ(WEIGHT)= 0.00(100.0%) 
 MO     3 (    3) HAS LZ(WEIGHT)= 0.00(100.0%) 
 MO     4 (    4) HAS LZ(WEIGHT)= 0.00(100.0%) 
 MO     5 (    5) HAS LZ(WEIGHT)= 0.00(100.0%) 
 MO     6 (    6) HAS LZ(WEIGHT)= 0.00(100.0%) 
 MO     7 (    7) HAS LZ(WEIGHT)= 0.00(100.0%) 
 MO     8 (    8) HAS LZ(WEIGHT)=-1.00( 50.0%)  1.00( 50.0%) 
 MO     9 (    8) HAS LZ(WEIGHT)=-1.00( 50.0%)  1.00( 50.0%) 
 MO    10 (    9) HAS LZ(WEIGHT)=-1.00( 50.0%)  1.00( 50.0%) 
 MO    11 (    9) HAS LZ(WEIGHT)=-1.00( 50.0%)  1.00( 50.0%) 
 MO    12 (   10) HAS LZ(WEIGHT)=-1.00( 50.0%)  1.00( 50.0%) 
 MO    13 (   10) HAS LZ(WEIGHT)=-1.00( 50.0%)  1.00( 50.0%) 
 MO    14 (   11) HAS LZ(WEIGHT)= 0.00(100.0%) 
 MO    15 (   12) HAS LZ(WEIGHT)= 0.00(100.0%) 
 MO    16 (   13) HAS LZ(WEIGHT)=-1.00( 50.0%)  1.00( 50.0%) 
 MO    17 (   13) HAS LZ(WEIGHT)=-1.00( 50.0%)  1.00( 50.0%) 
 MO    18 (   14) HAS LZ(WEIGHT)= 0.00(100.0%) 
 MO    19 (   15) HAS LZ(WEIGHT)= 0.00(100.0%) 
 MO    20 (   16) HAS LZ(WEIGHT)= 0.00(100.0%) 
 MO    21 (   17) HAS LZ(WEIGHT)=-1.00( 50.0%)  1.00( 50.0%) 
 MO    22 (   17) HAS LZ(WEIGHT)=-1.00( 50.0%)  1.00( 50.0%) 
 MO    23 (   18) HAS LZ(WEIGHT)=-1.00( 50.0%)  1.00( 50.0%) 
 MO    24 (   18) HAS LZ(WEIGHT)=-1.00( 50.0%)  1.00( 50.0%) 
 MO    25 (   19) HAS LZ(WEIGHT)= 0.00(100.0%) 
 MO    26 (   20) HAS LZ(WEIGHT)= 0.00(100.0%) 
 MO    27 (   21) HAS LZ(WEIGHT)=-2.00( 50.0%)  2.00( 50.0%) 
 MO    28 (   21) HAS LZ(WEIGHT)=-2.00( 50.0%)  2.00( 50.0%) 
 MO    29 (   22) HAS LZ(WEIGHT)=-1.00( 50.0%)  1.00( 50.0%) 
 MO    30 (   22) HAS LZ(WEIGHT)=-1.00( 50.0%)  1.00( 50.0%) 
 MO    31 (   23) HAS LZ(WEIGHT)=-2.00( 50.0%)  2.00( 50.0%) 
 MO    32 (   23) HAS LZ(WEIGHT)=-2.00( 50.0%)  2.00( 50.0%) 
 MO    33 (   24) HAS LZ(WEIGHT)= 0.00(100.0%) 
 MO    34 (   25) HAS LZ(WEIGHT)=-2.00( 50.0%)  2.00( 50.0%) 
 MO    35 (   25) HAS LZ(WEIGHT)=-2.00( 50.0%)  2.00( 50.0%) 
 MO    36 (   26) HAS LZ(WEIGHT)=-1.00( 50.0%)  1.00( 50.0%) 
 MO    37 (   26) HAS LZ(WEIGHT)=-1.00( 50.0%)  1.00( 50.0%) 
 MO    38 (   27) HAS LZ(WEIGHT)= 0.00(100.0%) 
 MO    39 (   28) HAS LZ(WEIGHT)= 0.00(100.0%) 
 MO    40 (   29) HAS LZ(WEIGHT)=-1.00( 50.0%)  1.00( 50.0%) 
 MO    41 (   29) HAS LZ(WEIGHT)=-1.00( 50.0%)  1.00( 50.0%) 
 MO    42 (   30) HAS LZ(WEIGHT)= 0.00(100.0%) 
 MO    43 (   31) HAS LZ(WEIGHT)= 0.00(100.0%) 
 MO    44 (   32) HAS LZ(WEIGHT)= 0.00(100.0%) 
 MO    45 (   33) HAS LZ(WEIGHT)= 0.00(100.0%) 
 ...... END OF RHF CALCULATION ......
 CPU     0: STEP CPU TIME=     0.01 TOTAL CPU TIME=        0.2 (    0.0 MIN)
 TOTAL WALL CLOCK TIME=        0.2 SECONDS, CPU UTILIZATION IS 100.00%
 ..... END OF 1-ELECTRON GRADIENT ......
 CPU     0: STEP CPU TIME=     0.01 TOTAL CPU TIME=        0.2 (    0.0 MIN)
 TOTAL WALL CLOCK TIME=        0.2 SECONDS, CPU UTILIZATION IS 100.00%
 ...... END OF 2-ELECTRON GRADIENT ......
 CPU     0: STEP CPU TIME=     0.03 TOTAL CPU TIME=        0.2 (    0.0 MIN)
 TOTAL WALL CLOCK TIME=        0.2 SECONDS, CPU UTILIZATION IS 100.00%

          NSERCH=  2     ENERGY=    -187.6334577

                                 -----------------------
                                 GRADIENT (HARTREE/BOHR)
                                 -----------------------
        ATOM     ZNUC       DE/DX         DE/DY         DE/DZ
 --------------------------------------------------------------
    1  C            6.0     0.0000000     0.0000000     0.0000000
    2  O            8.0     0.0000000     0.0000000    -0.0325397
    3  O            8.0     0.0000000     0.0000000     0.0325397

          MAXIMUM GRADIENT = 0.0325397    RMS GRADIENT = 0.0153394

 NSERCH:   2  E=     -187.6334576946  GRAD. MAX=  0.0325397  R.M.S.=  0.0153394

          HESSIAN UPDATED USING THE BFGS FORMULA
             ACTUAL ENERGY CHANGE WAS  -0.0044270249
          PREDICTED ENERGY CHANGE WAS  -0.0032941955 RATIO=  1.344
          MIN SEARCH, CORRECT HESSIAN, TRYING PURE NR STEP
               NR STEP HAS LENGTH         =   0.028499
          RADIUS OF STEP TAKEN=   0.02850  CURRENT TRUST RADIUS=   0.05120

 BEGINNING GEOMETRY SEARCH POINT NSERCH=   3 ...

 COORDINATES OF SYMMETRY UNIQUE ATOMS (ANGS)
   ATOM   CHARGE       X              Y              Z
 ------------------------------------------------------------
 C           6.0   0.0000000000   0.0000000000   0.0000000000
 O           8.0   0.0000000000   0.0000000000   1.1420761546
 O           8.0   0.0000000000   0.0000000000  -1.1420761546
 COORDINATES OF ALL ATOMS ARE (ANGS)
   ATOM   CHARGE       X              Y              Z
 ------------------------------------------------------------
 C           6.0   0.0000000000   0.0000000000   0.0000000000
 O           8.0   0.0000000000   0.0000000000   1.1420761546
 O           8.0   0.0000000000   0.0000000000  -1.1420761546

          INTERNUCLEAR DISTANCES (ANGS.)
          ------------------------------

                1 C          2 O          3 O     

   1 C       0.0000000    1.1420762 *  1.1420762 *
   2 O       1.1420762 *  0.0000000    2.2841523 *
   3 O       1.1420762 *  2.2841523 *  0.0000000  

  * ... LESS THAN  3.000

 ...... END OF ONE-ELECTRON INTEGRALS ......
 CPU     0: STEP CPU TIME=     0.00 TOTAL CPU TIME=        0.2 (    0.0 MIN)
 TOTAL WALL CLOCK TIME=        0.2 SECONDS, CPU UTILIZATION IS 100.00%
 TOTAL NUMBER OF NONZERO TWO-ELECTRON INTEGRALS =              143854
         11 INTEGRAL RECORDS WERE STORED ON DISK FILE  8.
  ...... END OF TWO-ELECTRON INTEGRALS .....
 CPU     0: STEP CPU TIME=     0.01 TOTAL CPU TIME=        0.2 (    0.0 MIN)
 TOTAL WALL CLOCK TIME=        0.2 SECONDS, CPU UTILIZATION IS 100.00%

          --------------------------
                 RHF SCF CALCULATION
          --------------------------
     DENSITY MATRIX CONV=  5.00E-05

 ITER EX DEM     TOTAL ENERGY        E CHANGE  DENSITY CHANGE    DIIS ERROR
          * * *   INITIATING DIIS PROCEDURE   * * *
   1  0  0     -187.6339831206  -187.6339831206   0.004700218   0.007504877
   2  1  0     -187.6341530565    -0.0001699359   0.001805287   0.002422518
   3  2  0     -187.6341668322    -0.0000137757   0.000853194   0.001165335
   4  3  0     -187.6341689422    -0.0000021100   0.000218780   0.000345513
   5  4  0     -187.6341692084    -0.0000002662   0.000114151   0.000141007
   6  5  0     -187.6341692386    -0.0000000302   0.000015400   0.000015111
   7  6  0     -187.6341692391    -0.0000000005   0.000002538   0.000001753

          -----------------
          DENSITY CONVERGED
          -----------------
     TIME TO FORM FOCK OPERATORS=       0.0 SECONDS (       0.0 SEC/ITER)
     TIME TO SOLVE SCF EQUATIONS=       0.0 SECONDS (       0.0 SEC/ITER)

 FINAL RHF ENERGY IS     -187.6341692391 AFTER   7 ITERATIONS

 LZ VALUE ANALYSIS FOR THE MOS
 ----------------------------------------
 MO     1 (    1) HAS LZ(WEIGHT)= 0.00(100.0%) 
 MO     2 (    2) HAS LZ(WEIGHT)= 0.00(100.0%) 
 MO     3 (    3) HAS LZ(WEIGHT)= 0.00(100.0%) 
 MO     4 (    4) HAS LZ(WEIGHT)= 0.00(100.0%) 
 MO     5 (    5) HAS LZ(WEIGHT)= 0.00(100.0%) 
 MO     6 (    6) HAS LZ(WEIGHT)= 0.00(100.0%) 
 MO     7 (    7) HAS LZ(WEIGHT)= 0.00(100.0%) 
 MO     8 (    8) HAS LZ(WEIGHT)=-1.00( 50.0%)  1.00( 50.0%) 
 MO     9 (    8) HAS LZ(WEIGHT)=-1.00( 50.0%)  1.00( 50.0%) 
 MO    10 (    9) HAS LZ(WEIGHT)=-1.00( 50.0%)  1.00( 50.0%) 
 MO    11 (    9) HAS LZ(WEIGHT)=-1.00( 50.0%)  1.00( 50.0%) 
 MO    12 (   10) HAS LZ(WEIGHT)=-1.00( 50.0%)  1.00( 50.0%) 
 MO    13 (   10) HAS LZ(WEIGHT)=-1.00( 50.0%)  1.00( 50.0%) 
 MO    14 (   11) HAS LZ(WEIGHT)= 0.00(100.0%) 
 MO    15 (   12) HAS LZ(WEIGHT)= 0.00(100.0%) 
 MO    16 (   13) HAS LZ(WEIGHT)=-1.00( 50.0%)  1.00( 50.0%) 
 MO    17 (   13) HAS LZ(WEIGHT)=-1.00( 50.0%)  1.00( 50.0%) 
 MO    18 (   14) HAS LZ(WEIGHT)= 0.00(100.0%) 
 MO    19 (   15) HAS LZ(WEIGHT)= 0.00(100.0%) 
 MO    20 (   16) HAS LZ(WEIGHT)= 0.00(100.0%) 
 MO    21 (   17) HAS LZ(WEIGHT)=-1.00( 50.0%)  1.00( 50.0%) 
 MO    22 (   17) HAS LZ(WEIGHT)=-1.00( 50.0%)  1.00( 50.0%) 
 MO    23 (   18) HAS LZ(WEIGHT)=-1.00( 50.0%)  1.00( 50.0%) 
 MO    24 (   18) HAS LZ(WEIGHT)=-1.00( 50.0%)  1.00( 50.0%) 
 MO    25 (   19) HAS LZ(WEIGHT)= 0.00(100.0%) 
 MO    26 (   20) HAS LZ(WEIGHT)= 0.00(100.0%) 
 MO    27 (   21) HAS LZ(WEIGHT)=-2.00( 50.0%)  2.00( 50.0%) 
 MO    28 (   21) HAS LZ(WEIGHT)=-2.00( 50.0%)  2.00( 50.0%) 
 MO    29 (   22) HAS LZ(WEIGHT)=-1.00( 50.0%)  1.00( 50.0%) 
 MO    30 (   22) HAS LZ(WEIGHT)=-1.00( 50.0%)  1.00( 50.0%) 
 MO    31 (   23) HAS LZ(WEIGHT)=-2.00( 50.0%)  2.00( 50.0%) 
 MO    32 (   23) HAS LZ(WEIGHT)=-2.00( 50.0%)  2.00( 50.0%) 
 MO    33 (   24) HAS LZ(WEIGHT)= 0.00(100.0%) 
 MO    34 (   25) HAS LZ(WEIGHT)=-2.00( 50.0%)  2.00( 50.0%) 
 MO    35 (   25) HAS LZ(WEIGHT)=-2.00( 50.0%)  2.00( 50.0%) 
 MO    36 (   26) HAS LZ(WEIGHT)=-1.00( 50.0%)  1.00( 50.0%) 
 MO    37 (   26) HAS LZ(WEIGHT)=-1.00( 50.0%)  1.00( 50.0%) 
 MO    38 (   27) HAS LZ(WEIGHT)= 0.00(100.0%) 
 MO    39 (   28) HAS LZ(WEIGHT)= 0.00(100.0%) 
 MO    40 (   29) HAS LZ(WEIGHT)=-1.00( 50.0%)  1.00( 50.0%) 
 MO    41 (   29) HAS LZ(WEIGHT)=-1.00( 50.0%)  1.00( 50.0%) 
 MO    42 (   30) HAS LZ(WEIGHT)= 0.00(100.0%) 
 MO    43 (   31) HAS LZ(WEIGHT)= 0.00(100.0%) 
 MO    44 (   32) HAS LZ(WEIGHT)= 0.00(100.0%) 
 MO    45 (   33) HAS LZ(WEIGHT)= 0.00(100.0%) 
 ...... END OF RHF CALCULATION ......
 CPU     0: STEP CPU TIME=     0.01 TOTAL CPU TIME=        0.2 (    0.0 MIN)
 TOTAL WALL CLOCK TIME=        0.2 SECONDS, CPU UTILIZATION IS 100.00%
 ..... END OF 1-ELECTRON GRADIENT ......
 CPU     0: STEP CPU TIME=     0.01 TOTAL CPU TIME=        0.2 (    0.0 MIN)
[...]

    1             0.309074   0.305605   0.660008   0.660008   0.067736
    2             0.845463   0.847197   0.669996   0.669996   0.966132
    3             0.845463   0.847197   0.669996   0.669996   0.966132

                     11

                  2.000000

    1             0.067736
    2             0.966132
    3             0.966132

               ----- POPULATIONS IN EACH AO -----
                             MULLIKEN      LOWDIN
              1  C  1  S      1.99722     1.96315
              2  C  1  S      0.72201     0.35945
              3  C  1  X      0.48225     0.41772
              4  C  1  Y      0.48225     0.41772
              5  C  1  Z      0.83379     0.70506
              6  C  1  S      0.09871     0.20161
              7  C  1  X      0.17776     0.27852
              8  C  1  Y      0.17776     0.27852
              9  C  1  Z     -0.01223     0.26252
             10  C  1 XX     -0.03506     0.08035
             11  C  1 YY     -0.03506     0.08035
             12  C  1 ZZ      0.08262     0.32239
             13  C  1 XY      0.00000     0.00000
             14  C  1 XZ      0.06774     0.14032
             15  C  1 YZ      0.06774     0.14032
             16  O  2  S      1.99560     1.97733
             17  O  2  S      0.91842     0.70862
             18  O  2  X      0.97072     0.91681
             19  O  2  Y      0.97072     0.91681
             20  O  2  Z      0.90838     0.83825
             21  O  2  S      0.90863     0.44808
             22  O  2  X      0.65110     0.64869
             23  O  2  Y      0.65110     0.64869
             24  O  2  Z      0.41730     0.50834
             25  O  2 XX      0.00351     0.16661
             26  O  2 YY      0.00351     0.16661
             27  O  2 ZZ      0.01865     0.19872
             28  O  2 XY      0.00000     0.00000
             29  O  2 XZ      0.01430     0.01621
             30  O  2 YZ      0.01430     0.01621
             31  O  3  S      1.99560     1.97733
             32  O  3  S      0.91842     0.70862
             33  O  3  X      0.97072     0.91681
             34  O  3  Y      0.97072     0.91681
             35  O  3  Z      0.90838     0.83825
             36  O  3  S      0.90863     0.44808
             37  O  3  X      0.65110     0.64869
             38  O  3  Y      0.65110     0.64869
             39  O  3  Z      0.41730     0.50834
             40  O  3 XX      0.00351     0.16661
             41  O  3 YY      0.00351     0.16661
             42  O  3 ZZ      0.01865     0.19872
             43  O  3 XY      0.00000     0.00000
             44  O  3 XZ      0.01430     0.01621
             45  O  3 YZ      0.01430     0.01621

          ----- MULLIKEN ATOMIC OVERLAP POPULATIONS -----
          (OFF-DIAGONAL ELEMENTS NEED TO BE MULTIPLIED BY 2)

             1           2           3

    1    3.8456580
    2    0.6309221   7.8412027
    3    0.6309221  -0.0258758   7.8412027

          TOTAL MULLIKEN AND LOWDIN ATOMIC POPULATIONS
       ATOM         MULL.POP.    CHARGE          LOW.POP.     CHARGE
    1 C             5.107502    0.892498         5.648016    0.351984
    2 O             8.446249   -0.446249         8.175992   -0.175992
    3 O             8.446249   -0.446249         8.175992   -0.175992

          -------------------------------
          BOND ORDER AND VALENCE ANALYSIS     BOND ORDER THRESHOLD=0.050
          -------------------------------

                   BOND                       BOND                       BOND
  ATOM PAIR DIST  ORDER      ATOM PAIR DIST  ORDER      ATOM PAIR DIST  ORDER
    1   2  1.143  1.957        1   3  1.143  1.957        2   3  2.287  0.174

                       TOTAL       BONDED        FREE
      ATOM            VALENCE     VALENCE     VALENCE
    1 C                 3.914       3.914       0.000
    2 O                 2.131       2.131       0.000
    3 O                 2.131       2.131       0.000

          ---------------------
          ELECTROSTATIC MOMENTS
          ---------------------

 POINT   1           X           Y           Z (BOHR)    CHARGE
                 0.000000    0.000000    0.000000        0.00 (A.U.)
         DX          DY          DZ         /D/  (DEBYE)
     0.000000    0.000000    0.000000    0.000000
 ...... END OF PROPERTY EVALUATION ......
 CPU     0: STEP CPU TIME=     0.01 TOTAL CPU TIME=        0.4 (    0.0 MIN)
 TOTAL WALL CLOCK TIME=        0.4 SECONDS, CPU UTILIZATION IS 100.00%
  $VIB   
          IVIB=   0 IATOM=   0 ICOORD=   0 E=     -187.6341762037
  0.000000000E+00 0.000000000E+00 0.000000000E+00 0.000000000E+00 0.000000000E+00
 -3.099007091E-07 0.000000000E+00 0.000000000E+00 3.099106722E-07
  2.895504914E-29-1.627977944E-29-2.355067511E-10
 ......END OF GEOMETRY SEARCH......
 CPU     0: STEP CPU TIME=     0.00 TOTAL CPU TIME=        0.4 (    0.0 MIN)
 TOTAL WALL CLOCK TIME=        0.4 SECONDS, CPU UTILIZATION IS 100.00%


     *********************************************************
     THE HESSIAN WILL NOW BE COMPUTED AT THE STATIONARY POINT.
     *********************************************************

     ---------------------------------
     HESSIAN MATRIX CONTROL PARAMETERS
     ---------------------------------
     METHOD=ANALYTIC   NVIB  =       2   VIBSIZ= 0.01000
     RDHESS=       F   PURIFY=       F   PRTIFC=       F
     VIBANL=       F   DECOMP=       F   PROJCT=       F
     SCLFAC= 1.00000   PRTSCN=       F   NPRT  =       0
     PULCOR=       F   NPUN  =       0   REDOVB=       T

     ------------------------------
     CPHF RESPONSE SOLUTION OPTIONS
     ------------------------------
     POLAR  =       F     NWORD  =       0
     CPHF   =AO      

 REGENERATING AO INTEGRAL LIST IN C1 POINT GROUP FOR AO-DRIVEN CPHF

          --------------------
          2 ELECTRON INTEGRALS
          --------------------

 THE -PK- OPTION IS OFF, THE INTEGRALS ARE NOT IN SUPERMATRIX FORM.
 STORING   15000 INTEGRALS/RECORD ON DISK, USING 12 BYTES/INTEGRAL.
 TWO ELECTRON INTEGRAL EVALUATION REQUIRES   90474 WORDS OF MEMORY.
 II,JST,KST,LST =  1  1  1  1 NREC =         1 INTLOC =    1
 II,JST,KST,LST =  2  1  1  1 NREC =         1 INTLOC =    1
 II,JST,KST,LST =  3  1  1  1 NREC =         1 INTLOC =    1
 II,JST,KST,LST =  4  1  1  1 NREC =         1 INTLOC =   55
 II,JST,KST,LST =  5  1  1  1 NREC =         1 INTLOC =  334
 II,JST,KST,LST =  6  1  1  1 NREC =         1 INTLOC =  555
 II,JST,KST,LST =  7  1  1  1 NREC =         1 INTLOC = 2089
 II,JST,KST,LST =  8  1  1  1 NREC =         1 INTLOC = 4826
 II,JST,KST,LST =  9  1  1  1 NREC =         1 INTLOC =10563
 II,JST,KST,LST = 10  1  1  1 NREC =         1 INTLOC =12267
 II,JST,KST,LST = 11  1  1  1 NREC =         2 INTLOC = 4912
 II,JST,KST,LST = 12  1  1  1 NREC =         2 INTLOC =12236
 TOTAL NUMBER OF NONZERO TWO-ELECTRON INTEGRALS =              143826
         11 INTEGRAL RECORDS WERE STORED ON DISK FILE  8.
  ...... END OF TWO-ELECTRON INTEGRALS .....
 CPU     0: STEP CPU TIME=     0.01 TOTAL CPU TIME=        0.4 (    0.0 MIN)
 TOTAL WALL CLOCK TIME=        0.4 SECONDS, CPU UTILIZATION IS 100.00%

     ---------------------------------------------
     1ST AND 2ND INTEGRAL DERIVATIVE CONTRIBUTIONS
     ---------------------------------------------
 ...... END OF 1-ELECTRON GRAD+HESS+FOCKDER ......
 CPU     0: STEP CPU TIME=     0.01 TOTAL CPU TIME=        0.4 (    0.0 MIN)
 TOTAL WALL CLOCK TIME=        0.4 SECONDS, CPU UTILIZATION IS 100.00%

     ----------------------------------------------
     TWO ELECTRON INTEGRAL DERIVATIVE CONTRIBUTIONS
     ----------------------------------------------

      25164 WORDS REQUIRED,   1000000 WORDS AVAILABLE
 THE COARSE/FINE SCHWARZ SCREENINGS SKIPPED          0/         0 BLOCKS.
 THE NUMBER OF DERIVATIVE INTEGRAL BLOCKS COMPUTED WAS      2916
 CPU     0: STEP CPU TIME=     0.21 TOTAL CPU TIME=        0.6 (    0.0 MIN)
 TOTAL WALL CLOCK TIME=        0.6 SECONDS, CPU UTILIZATION IS 100.00%
 ...... END OF 2-ELECTRON GRAD+HESS+FOCKDER ......
 CPU     0: STEP CPU TIME=     0.00 TOTAL CPU TIME=        0.6 (    0.0 MIN)
 TOTAL WALL CLOCK TIME=        0.6 SECONDS, CPU UTILIZATION IS 100.00%

     -------------------------------------------
     COUPLED-PERTURBED CLOSED SHELL HARTREE-FOCK
     -------------------------------------------
 THE CPHF HAS     374 INDEPENDENT ORBITAL ROTATIONS.
 SOLVING FOR    9 NUCLEAR RESPONSES AND 0 ELECTRIC FIELD RESPONSES
           -FA- WILL USE      8775 WORDS,
           -TA- WILL USE     27369 WORDS,
          -FCK- WILL USE     60427 WORDS,
 -WXY- AND -YA- WILL USE     72114 WORDS,
               THERE ARE   1000000 WORDS OF REPLICATED MEMORY AVAILABLE.
        TIME FOR -FA-   =        0.000
        TIME FOR -TA-   =        0.001
        TIME FOR -FCK-  =        0.006
 PRECONDITIONED CONJUGATE GRADIENT SOLVER     CONV. TOLERANCE=5.00E-05
 ITER    RESPONSE ERROR        IMPROVED
   1       3.60631E-01             9
   2       1.82854E-01             9
   3       4.72360E-02             9
   4       1.31972E-02             9
   5       4.24653E-03             9
   6       8.78675E-04             9
   7       1.71835E-04             7
   8       3.91790E-05             2
 THE CPHF HAS CONVERGED AFTER  8 ITERATIONS.
 IT REQUIRED    63 FOCK-LIKE BUILDS TO FIND THE   9 SYMMETRY UNIQUE RESPONSES.
        TIME FOR -YA-   =        0.055
 ...... DONE WITH CPHF CONTRIBUTIONS ......
 CPU     0: STEP CPU TIME=     0.06 TOTAL CPU TIME=        0.7 (    0.0 MIN)
 TOTAL WALL CLOCK TIME=        0.7 SECONDS, CPU UTILIZATION IS 100.00%

          ---------------
          ENERGY GRADIENT
          ---------------

 UNITS ARE HARTREE/BOHR    E'X               E'Y               E'Z 
    1 C                0.000000000       0.000000000       0.000000000
    2 O                0.000000000       0.000000000      -0.000000364
    3 O                0.000000000       0.000000000       0.000000364

          -------------------------------
          CARTESIAN FORCE CONSTANT MATRIX
          -------------------------------

                                   1                          2
                               C                          O         
                          X        Y        Z        X        Y        Z
  1   C            X 0.183690 0.000000 0.000000-0.091845 0.000000 0.000000
                   Y 0.000000 0.183690 0.000000 0.000000-0.091845 0.000000
                   Z 0.000000 0.000000 2.206809 0.000000 0.000000-1.103403
  2   O            X-0.091845 0.000000 0.000000 0.045922 0.000000 0.000000
                   Y 0.000000-0.091845 0.000000 0.000000 0.045922 0.000000
                   Z 0.000000 0.000000-1.103403 0.000000 0.000000 1.249563
  3   O            X-0.091845 0.000000 0.000000 0.045923 0.000000 0.000000
                   Y 0.000000-0.091845 0.000000 0.000000 0.045923 0.000000
                   Z 0.000000 0.000000-1.103403 0.000000 0.000000-0.146162

                                   3
                               O         
                          X        Y        Z
  3   O            X 0.045922 0.000000 0.000000
                   Y 0.000000 0.045922 0.000000
                   Z 0.000000 0.000000 1.249563

          ------------------------          ----------------
          DIPOLE DERIVATIVE TENSOR          (DEBYE/ANGSTROM)
          ------------------------          ----------------

        ATOM                 MU-X           MU-Y           MU-Z
     C          D/DX     3.772988025    0.000000000    0.000000000
                D/DY     0.000000000    3.772988025    0.000000000
                D/DZ     0.000000000    0.000000000   14.288515363
     O          D/DX    -1.886521262    0.000000000    0.000000000
                D/DY     0.000000000   -1.886521262    0.000000000
                D/DZ     0.000000000    0.000000000   -7.144398706
     O          D/DX    -1.886521262    0.000000000    0.000000000
                D/DY     0.000000000   -1.886521262    0.000000000
                D/DZ     0.000000000    0.000000000   -7.144398706

          --------------------------------------------------------
          NORMAL COORDINATE ANALYSIS IN THE HARMONIC APPROXIMATION
          --------------------------------------------------------

          ATOMIC WEIGHTS (AMU)

    1     C                12.00000
    2     O                15.99491
    3     O                15.99491

 MODES 1 TO 5 ARE TAKEN AS ROTATIONS AND TRANSLATIONS.

 ANALYZING SYMMETRY OF NORMAL MODES...
 WATCH OUT!! THE COUNTING OF DEGENERATE MODES COUNTS INDIVIDUAL MODES,
 E.G. 2*E MEANS ONE (1) SET OF DEGENERATE E MODES

 --- SYMMETRY FOR NORMAL MODES ---
 INCLUDING TRANSLATION AND ROTATION
    3*A1     0*A2     0*B1     0*B2     6*E   
 EXCLUDING TRANSLATION AND ROTATION (SAYVETZ < 0.01)
    2*A1     0*A2     0*B1     0*B2     2*E   

     FREQUENCIES IN CM**-1, IR INTENSITIES IN DEBYE**2/AMU-ANGSTROM**2,
     REDUCED MASSES IN AMU.

                          1           2           3           4           5
       FREQUENCY:         1.04        1.04        0.02        0.00        0.00  
        SYMMETRY:         E           E           A1          E           E   
    REDUCED MASS:     15.99491    15.99491    14.66328    14.66327    14.66327
    IR INTENSITY:      0.00000     0.00000     0.00000     0.00000     0.00000

  1   C            X  0.00000118 -0.00000028  0.00000001  0.00210188  0.15075868
                   Y  0.00000028  0.00000118  0.00000007  0.15075868 -0.00210188
                   Z  0.00000000  0.00000000  0.15077295 -0.00000007 -0.00000001
  2   O            X  0.17204358 -0.04076002  0.00000001  0.00210185  0.15075696
                   Y  0.04076002  0.17204358  0.00000007  0.15075696 -0.00210185
                   Z  0.00000000  0.00000000  0.15077318 -0.00000007 -0.00000001
  3   O            X -0.17204122  0.04075946  0.00000001  0.00210189  0.15075980
                   Y -0.04075946 -0.17204122  0.00000007  0.15075980 -0.00210189
                   Z  0.00000000  0.00000000  0.15077318 -0.00000007 -0.00000001

 TRANS. SAYVETZ    X  0.00005183 -0.00001228  0.00000034  0.09246103  6.63183768
                   Y  0.00001228  0.00005183  0.00000308  6.63183768 -0.09246103
                   Z  0.00000000  0.00000000  6.63248219 -0.00000309 -0.00000029
               TOTAL  0.00005327  0.00005327  6.63248219  6.63248219  6.63248219

   ROT. SAYVETZ    X -2.81699258-11.89021713  0.00000000  0.00009813 -0.00000137
                   Y 11.89021713 -2.81699258  0.00000000 -0.00000137 -0.00009813
                   Z  0.00000000  0.00000000  0.00000000  0.00000000  0.00000000
               TOTAL 12.21935803 12.21935803  0.00000000  0.00009813  0.00009813

                          6           7           8           9
       FREQUENCY:       745.81      745.81     1518.50     2585.03  
        SYMMETRY:         E           E           A1          A1  
    REDUCED MASS:     12.87737    12.87737    15.99491    12.87736
    IR INTENSITY:      1.63130     1.63130     0.00000    23.39581

  1   C            X  0.24544674  0.01888475  0.00000000  0.00000000
                   Y -0.01888475  0.24544674  0.00000000  0.00000000
                   Z  0.00000000  0.00000000  0.00000000  0.24617240
  2   O            X -0.09207200 -0.00708405  0.00000000  0.00000000
                   Y  0.00708405 -0.09207200  0.00000000  0.00000000
                   Z  0.00000000  0.00000000  0.17680482 -0.09234389
  3   O            X -0.09207200 -0.00708405  0.00000000  0.00000000
                   Y  0.00708405 -0.09207200  0.00000000  0.00000000
                   Z  0.00000000  0.00000000 -0.17680482 -0.09234389

 TRANS. SAYVETZ    X -0.00000580 -0.00000045  0.00000000  0.00000000
                   Y  0.00000045 -0.00000580  0.00000000  0.00000000
                   Z  0.00000000  0.00000000  0.00000000  0.00000456
               TOTAL  0.00000582  0.00000582  0.00000000  0.00000456

   ROT. SAYVETZ    X  0.00000000  0.00000000  0.00000000  0.00000000
                   Y  0.00000000  0.00000000  0.00000000  0.00000000
                   Z  0.00000000  0.00000000  0.00000000  0.00000000
               TOTAL  0.00000000  0.00000000  0.00000000  0.00000000

 REFERENCE ON SAYVETZ CONDITIONS - A. SAYVETZ, J.CHEM.PHYS., 7, 383-389(1939).

 NOTE - THE MODES J,K ARE ORTHONORMALIZED ACCORDING TO
 SUM ON I   M(I) * (X(I,J)*X(I,K) + Y(I,J)*Y(I,K) + Z(I,J)*Z(I,K)) = DELTA(J,K)

  MODE FREQ(CM**-1)  SYMMETRY  RED. MASS  IR INTENS.
     1       1.038    E       15.994910    0.000000
     2       1.038    E       15.994910    0.000000
     3       0.021    A1      14.663276    0.000000
     4       0.004    E       14.663270    0.000000
     5       0.004    E       14.663270    0.000000
     6     745.807    E       12.877370    1.631298
     7     745.807    E       12.877370    1.631298
     8    1518.495    A1      15.994910    0.000000
     9    2585.033    A1      12.877365   23.395807

     -------------------------------
     THERMOCHEMISTRY AT T=  298.15 K
     -------------------------------

 USING IDEAL GAS, RIGID ROTOR, HARMONIC NORMAL MODE APPROXIMATIONS.
 P=  1.01325E+05 PASCAL.
 ALL FREQUENCIES ARE SCALED BY   1.00000
 THE MOMENTS OF INERTIA ARE (IN AMU*BOHR**2)
      0.00000   149.31271   149.31271
 THE ROTATIONAL SYMMETRY NUMBER IS  1.0
 THE ROTATIONAL CONSTANTS ARE (IN GHZ)
      0.00000    12.07592    12.07592
 THE HARMONIC ZERO POINT ENERGY IS (SCALED BY   1.000)
        0.012747 HARTREE/MOLECULE     2797.570937 CM**-1/MOLECULE 
        7.998665 KCAL/MOL               33.466413 KJ/MOL

               Q               LN Q
 ELEC.     1.00000E+00       0.000000
 TRANS.    1.14679E+07      16.255058
 ROT.      5.13974E+02       6.242173
 VIB.      1.05773E+00       0.056122
 TOT.      6.23443E+09      22.553353

              E         H         G         CV        CP        S
           KJ/MOL    KJ/MOL    KJ/MOL   J/MOL-K   J/MOL-K   J/MOL-K
 ELEC.      0.000     0.000     0.000     0.000     0.000     0.000
 TRANS.     3.718     6.197   -40.295    12.472    20.786   155.937
 ROT.       2.479     2.479   -15.474     8.314     8.314    60.214
 VIB.      33.980    33.980    33.327     6.526     6.526     2.190
 TOTAL     40.178    42.657   -22.442    27.312    35.626   218.342
 VIB. THERMAL CORRECTION E(T)-E(0) = H(T)-H(0) =   513.802 J/MOL

              E         H         G         CV        CP        S
         KCAL/MOL  KCAL/MOL  KCAL/MOL CAL/MOL-K CAL/MOL-K CAL/MOL-K
 ELEC.      0.000     0.000     0.000     0.000     0.000     0.000
 TRANS.     0.889     1.481    -9.631     2.981     4.968    37.270
 ROT.       0.592     0.592    -3.698     1.987     1.987    14.392
 VIB.       8.121     8.121     7.965     1.560     1.560     0.523
 TOTAL      9.603    10.195    -5.364     6.528     8.515    52.185
 VIB. THERMAL CORRECTION E(T)-E(0) = H(T)-H(0) =   122.802 CAL/MOL
 ......END OF NORMAL COORDINATE ANALYSIS......
 CPU     0: STEP CPU TIME=     0.00 TOTAL CPU TIME=        0.7 (    0.0 MIN)
 TOTAL WALL CLOCK TIME=        0.7 SECONDS, CPU UTILIZATION IS 100.00%
                   992531  WORDS OF DYNAMIC MEMORY USED
 EXECUTION OF GAMESS TERMINATED NORMALLY Thu Nov 23 17:41:20 2017
 DDI: 263624 bytes (0.3 MB / 0 MWords) used by master data server.

 ----------------------------------------
 CPU timing information for all processes
 ========================================
 0: 0.546003 + 0.031200 = 0.577203
 1: 0.561603 + 0.046800 = 0.608403
 2: 0.561603 + 0.015600 = 0.577203
 3: 0.561603 + 0.031200 = 0.592803
 4: 0.280801 + 0.015600 = 0.296401
 5: 0.000000 + 0.015600 = 0.015600
 6: 0.000000 + 0.000000 = 0.000000
 7: 0.000000 + 0.000000 = 0.000000
 ----------------------------------------
           Disk usage (in bytes)       
 ========================================
 ----------------------------------------
            Local date and time          
 ========================================
23.11.2017 - 17:41:26.93                          
